[Molden Format]
[Title]
[Atoms] AU
C      1     6  0.47243153111642E+01  0.47243153111642E+01  0.47243153113320E+01
O      2     8  0.47243153117446E+01  0.47243153117446E+01  0.68853083725236E+01
O      3     8  0.47243153117446E+01  0.47243153117446E+01  0.25633222507977E+01
[GTO]
           1 0
 s           4   1.0000000000000000     
   51.049363095579913      -0.16312063210127389     
   8.7911227406887544      -0.19911024581000730     
  0.70640422258929825       0.31882047753655751     
  0.26922813413411617       0.12706504184240380     
 p           4   1.0000000000000000     
   5.8263656140800002       0.73716451545209605     
   1.5106896018720002       0.68216371614850257     
  0.53256483288000001       0.35783053929253711     
  0.21202323690600003        5.3983030275847881E-002

           2 0
 s           4   1.0000000000000000     
   69.137961906196551      -0.20478756370077797     
   11.906129132707308      -0.24997023136827334     
  0.95670827744340703       0.40025880240639616     
  0.36462520496073686       0.15952206667693555     
 p           4   1.0000000000000000     
   8.2124193257781641        1.1321556799186829     
   2.1293576997098116        1.0476840782254817     
  0.75066448202360914       0.54956508217158984     
  0.29885246543283073        8.2908486592766617E-002

           3 0
 s           4   1.0000000000000000     
   69.137961906196551      -0.20478756370077797     
   11.906129132707308      -0.24997023136827334     
  0.95670827744340703       0.40025880240639616     
  0.36462520496073686       0.15952206667693555     
 p           4   1.0000000000000000     
   8.2124193257781641        1.1321556799186829     
   2.1293576997098116        1.0476840782254817     
  0.75066448202360914       0.54956508217158984     
  0.29885246543283073        8.2908486592766617E-002

[MO]
Sym=     1a
Ene=  -0.81083540919944264     
Spin= Alpha
Occup=     2.00000000
           1 -0.47892704576248002     
           2   1.2628261162094139E-010
           3   1.2628231065377841E-010
           4  -2.3161131623705700E-009
           5 -0.37659265421231519     
           6   5.1791101050180206E-010
           7   5.1791057142874821E-010
           8  0.21097014032412079     
           9 -0.37659264767772815     
          10   2.4540568515891659E-010
          11   2.4540542051632102E-010
          12 -0.21097013802791686     
Sym=     2a
Ene=  -0.79669767614528075     
Spin= Alpha
Occup=     2.00000000
           1  -3.2905018432227706E-009
           2  -2.9150846070370759E-010
           3  -2.9150802823893937E-010
           4  0.37241908810821295     
           5  0.48969195033260504     
           6  -5.4185516089920868E-010
           7  -5.4185468075670297E-010
           8 -0.10383973241445825     
           9 -0.48969195573523167     
          10   2.0411685564969207E-010
          11   2.0411757637520265E-010
          12 -0.10383973444412281     
Sym=     3a
Ene=  -0.66480901781399604     
Spin= Alpha
Occup=     2.00000000
           1 -0.26298168318693971     
           2  -1.4559198935609515E-008
           3  -1.4559224070526903E-008
           4   6.5355679201850592E-010
           5  0.54012867458051761     
           6  -1.1938575757525744E-008
           7  -1.1938597339879023E-008
           8  0.42308293139543496     
           9  0.54012867528420339     
          10  -1.2734341129059936E-008
          11  -1.2734362551231064E-008
          12 -0.42308293364811861     
Sym=     4a
Ene=  -0.66349655840741750     
Spin= Alpha
Occup=     2.00000000
           1  -9.4287320436031470E-009
           2  0.39148001996422244     
           3  0.39148045265899095     
           4  -2.8596651351349511E-010
           5   2.1453844235243352E-008
           6  0.32908741377649792     
           7  0.32908777751001039     
           8   1.6792337109548687E-008
           9   1.9397053139627126E-008
          10  0.32908741390337926     
          11  0.32908777763688885     
          12  -1.4514437138768728E-008
Sym=     5a
Ene=  -0.66349655831429033     
Spin= Alpha
Occup=     2.00000000
           1   3.5489767381878703E-015
           2  0.39148045286218386     
           3 -0.39148002016741568     
           4  -1.6804724343723237E-016
           5  -4.7396466880267830E-015
           6  0.32908777737866729     
           7 -0.32908741364515637     
           8  -3.9890866004666760E-015
           9  -7.3743910141762085E-015
          10  0.32908777750554702     
          11 -0.32908741377203526     
          12   6.3051751327019383E-015
Sym=     6a
Ene=  -0.59982312174447006     
Spin= Alpha
Occup=     2.00000000
           1  -2.5628696387336447E-010
           2  -8.8794050065470362E-010
           3  -8.8793948150576112E-010
           4 -0.28169430069711043     
           5  0.36931015210037116     
           6  -6.2124061078132042E-010
           7  -6.2124039075670182E-010
           8  0.56626510998970525     
           9 -0.36931014976512183     
          10  -6.3861044605846781E-010
          11  -6.3860952179923629E-010
          12  0.56626510871139035     
Sym=     7a
Ene=  -0.53444189478594106     
Spin= Alpha
Occup=     2.00000000
           1  -3.8124215797922085E-010
           2  -6.2298527438709691E-011
           3  -6.2297778058861802E-011
           4  -2.7632142729691815E-010
           5  -7.7240916472887687E-011
           6 -0.50228730660603649     
           7 -0.50228658482642996     
           8   5.5006986614529325E-010
           9   7.6189375031474946E-010
          10  0.50228730645997499     
          11  0.50228658468036824     
          12  -1.8686782610865074E-010
Sym=     8a
Ene=  -0.53444189459363289     
Spin= Alpha
Occup=     2.00000000
           1  -3.1495275420074257E-017
           2   6.2298291525486643E-011
           3  -6.2297014748314540E-011
           4  -7.8066226594083839E-017
           5  -3.6881851610369994E-016
           6  0.50228658482643018     
           7 -0.50228730660603649     
           8   1.7198840152015296E-016
           9   6.6887630723607417E-016
          10 -0.50228658468036802     
          11  0.50228730645997499     
          12  -2.8907018433657932E-016
Sym=     9a
Ene=  -0.22386938244506305     
Spin= Alpha
Occup=     0.00000000
           1  -4.9556689808410590E-010
           2  0.64546595060979284     
           3  0.64546042545211357     
           4   1.0281118877876821E-010
           5  -1.2427740603873162E-010
           6 -0.41722549298369721     
           7 -0.41722192155342203     
           8   7.4288067631788970E-011
           9  -1.7819762945650714E-010
          10 -0.41722549311849033     
          11 -0.41722192168821420     
          12   1.4661549933283693E-010
Sym=    10a
Ene=  -0.22386938242754237     
Spin= Alpha
Occup=     0.00000000
           1   2.0380519326700892E-015
           2  0.64546042532887471     
           3 -0.64546595048655497     
           4  -3.9799407041911563E-016
           5   4.9686148858156053E-016
           6 -0.41722192165701993     
           7  0.41722549308729417     
           8  -2.3315510546104455E-016
           9   9.1400353783444785E-016
          10 -0.41722192179181194     
          11  0.41722549322208768     
          12  -6.2618019831008088E-016
Sym=    11a
Ene=   0.31024416310707215     
Spin= Alpha
Occup=     0.00000000
           1  -1.2415684072754303     
           2  -4.1389413351702545E-010
           3  -4.1389421982978715E-010
           4  -8.9256063651177442E-010
           5  0.47991273370195908     
           6   5.5223913628911179E-011
           7   5.5223856722799390E-011
           8 -0.69001189357126724     
           9  0.47991273322604411     
          10   2.0425964067437991E-011
          11   2.0425961089794293E-011
          12  0.69001189289496190     
Sym=    12a
Ene=    1.3650164531606328     
Spin= Alpha
Occup=     0.00000000
           1  -1.1672329214285071E-009
           2  -6.0621926202274915E-011
           3  -6.0621869643413463E-011
           4   1.5831737808828790     
           5 -0.83593926719062073     
           6   2.8219859693971689E-010
           7   2.8219862362742394E-010
           8  0.73619776068277298     
           9  0.83593926854565948     
          10  -2.5384177394741698E-010
          11  -2.5384170642742652E-010
          12  0.73619776179737750     
