
  ___ ___ ___ _ _ _  
 |   |   |_  | | | | 
 | | | | | . | | | | 
 |__ |  _|___|_____|  25.1.0
 |___|_|             

User:   elcabris@archlinux
Date:   Fri Apr 11 10:36:11 2025
Arch:   x86_64
Pid:    21012
CWD:    /home/elcabris/Documents/scientific-computing/period-4/chemistry_2/chemistry-II/practica_i/punto_1/a
Python: 3.9.21
gpaw:   /home/elcabris/Documents/scientific-computing/period-4/chemistry_2/chemistry-2-venv/lib/python3.9/site-packages/gpaw
_gpaw:  /home/elcabris/Documents/scientific-computing/period-4/chemistry_2/chemistry-2-venv/lib/python3.9/site-packages/
        _gpaw.cpython-39-x86_64-linux-gnu.so
ase:    /home/elcabris/Documents/scientific-computing/period-4/chemistry_2/chemistry-2-venv/lib/python3.9/site-packages/ase (version 3.24.0)
numpy:  /home/elcabris/Documents/scientific-computing/period-4/chemistry_2/chemistry-2-venv/lib/python3.9/site-packages/numpy (version 2.0.2)
scipy:  /home/elcabris/Documents/scientific-computing/period-4/chemistry_2/chemistry-2-venv/lib/python3.9/site-packages/scipy (version 1.13.1)
libxc:  7.0.0
units:  Angstrom and eV
cores: 1
OpenMP: False
OMP_NUM_THREADS: 1

Input parameters:
  basis: dzp
  mode: lcao
  xc: PBE

System changes: positions, numbers, cell, pbc, initial_charges, initial_magmoms 

Initialize ...

species:
  C:
    name: Carbon
    id: 4aa54d4b901d75f77cc0ea3eec22967b
    Z: 6.0
    valence: 4
    core: 2
    charge: 0.0
    file: /home/elcabris/gpaw-setups/gpaw-setups-24.11.0/C.PBE.gz
    compensation charges: {type: gauss,
                           rc: 0.20,
                           lmax: 2}
    cutoffs: {filter: 1.14,
              core: 1.14}
    projectors:
      #              energy  rcut
      - 2s(2.00)   -13.751   0.635
      - 2p(2.00)    -5.284   0.635
      -  s          13.461   0.635
      -  p          21.927   0.635
      -  d           0.000   0.635
  
    # LCAO basis set for C:
    #   Name: dzp
    #   File: /home/elcabris/gpaw-setups/gpaw-setups-24.11.0/C.dzp.basis.gz
    #   Number of radial functions: 5
    #   Number of spherical harmonics: 13
    #     l=0, rc=5.5469 Bohr: 2s-sz confined orbital
    #     l=1, rc=6.6719 Bohr: 2p-sz confined orbital
    #     l=0, rc=3.0312 Bohr: 2s-dz split-valence wave
    #     l=1, rc=3.7500 Bohr: 2p-dz split-valence wave
    #     l=2, rc=6.6719 Bohr: d-type Gaussian polarization
    #   Number of RI-basis functions 0

  O:
    name: Oxygen
    id: 32ecd46bf208036f09c70b0ec9a88b78
    Z: 8.0
    valence: 6
    core: 2
    charge: 0.0
    file: /home/elcabris/gpaw-setups/gpaw-setups-24.11.0/O.PBE.gz
    compensation charges: {type: gauss,
                           rc: 0.21,
                           lmax: 2}
    cutoffs: {filter: 1.17,
              core: 0.83}
    projectors:
      #              energy  rcut
      - 2s(2.00)   -23.961   0.688
      - 2p(4.00)    -9.029   0.598
      -  s           3.251   0.688
      -  p          18.182   0.598
      -  d           0.000   0.619
  
    # LCAO basis set for O:
    #   Name: dzp
    #   File: /home/elcabris/gpaw-setups/gpaw-setups-24.11.0/O.dzp.basis.gz
    #   Number of radial functions: 5
    #   Number of spherical harmonics: 13
    #     l=0, rc=4.3438 Bohr: 2s-sz confined orbital
    #     l=1, rc=5.3906 Bohr: 2p-sz confined orbital
    #     l=0, rc=2.2969 Bohr: 2s-dz split-valence wave
    #     l=1, rc=2.8906 Bohr: 2p-dz split-valence wave
    #     l=2, rc=5.3906 Bohr: d-type Gaussian polarization
    #   Number of RI-basis functions 0

Reference energy: -5109.332718  # eV

Spin-paired calculation

Convergence criteria:
 Maximum [total energy] change in last 3 cyles: 0.0005 eV / valence electron
 Maximum integral of absolute [dens]ity change: 0.0001 electrons / valence electron
 Maximum integral of absolute [eigenst]ate change: 4e-08 eV^2 / valence electron
 Maximum number of scf [iter]ations: 333
 (Square brackets indicate name in SCF output, whereas a 'c' in
 the SCF output indicates the quantity has converged.)

Symmetries present (total): 16

  ( 1  0  0)  ( 1  0  0)  ( 1  0  0)  ( 1  0  0)  ( 0  1  0)  ( 0  1  0)
  ( 0  1  0)  ( 0  1  0)  ( 0 -1  0)  ( 0 -1  0)  ( 1  0  0)  ( 1  0  0)
  ( 0  0  1)  ( 0  0 -1)  ( 0  0  1)  ( 0  0 -1)  ( 0  0  1)  ( 0  0 -1)

  ( 0  1  0)  ( 0  1  0)  ( 0 -1  0)  ( 0 -1  0)  ( 0 -1  0)  ( 0 -1  0)
  (-1  0  0)  (-1  0  0)  ( 1  0  0)  ( 1  0  0)  (-1  0  0)  (-1  0  0)
  ( 0  0  1)  ( 0  0 -1)  ( 0  0  1)  ( 0  0 -1)  ( 0  0  1)  ( 0  0 -1)

  (-1  0  0)  (-1  0  0)  (-1  0  0)  (-1  0  0)
  ( 0  1  0)  ( 0  1  0)  ( 0 -1  0)  ( 0 -1  0)
  ( 0  0  1)  ( 0  0 -1)  ( 0  0  1)  ( 0  0 -1)

1 k-point (Gamma)
1 k-point in the irreducible part of the Brillouin zone
       k-points in crystal coordinates                weights
   0:     0.00000000    0.00000000    0.00000000          1/1

Wave functions: LCAO
  Diagonalizer: Serial LAPACK
  Atomic Correction: dense with blas
  Data-type: float
 

Occupation numbers: # Zero width 

Eigensolver
   LCAO using direct dense diagonalizer 

Densities:
  Coarse grid: 40*40*40 grid
  Fine grid: 80*80*80 grid
  Total Charge: 0.000000 

Density mixing:
  Method: separate
  Backend: pulay
  Linear mixing parameter: 0.25
  old densities: 3
  Damping of long wavelength oscillations: 1  # (no daming) 

Hamiltonian:
  XC and Coulomb potentials evaluated on a 80*80*80 grid
  Using the PBE Exchange-Correlation functional
  Interpolation: tri-quintic (5. degree polynomial)
  Poisson solver: FastPoissonSolver using
    Stencil: 6*3+1=19 point O(h^6) finite-difference Laplacian
    FFT axes: []
    FST axes: [np.int64(0), np.int64(1), np.int64(2)]
 

XC parameters: PBE with 2 nearest neighbor stencil

Memory estimate:
  Process memory now: 184.20 MiB
  Calculator: 28.45 MiB
    Density: 17.00 MiB
      Arrays: 12.19 MiB
      Localized functions: 2.10 MiB
      Mixer: 2.72 MiB
    Hamiltonian: 8.13 MiB
      Arrays: 7.98 MiB
      XC: 0.00 MiB
      Poisson: 0.00 MiB
      vbar: 0.15 MiB
    Wavefunctions: 3.33 MiB
      C [qnM]: 0.00 MiB
      S, T [2 x qmm]: 0.02 MiB
      P [aqMi]: 0.00 MiB
      BasisFunctions: 3.30 MiB
      Eigensolver: 0.00 MiB

Total number of cores used: 1

Number of atoms: 3
Number of atomic orbitals: 39
Number of bands in calculation: 12
Number of valence electrons: 16
Bands to converge: occupied

... initialized

Initializing position-dependent things.

Density initialized from atomic densities
      .-------------------.  
     /|                   |  
    / |                   |  
   /  |                   |  
  /   |                   |  
 *    |                   |  
 |    |       O           |  
 |    |       C           |  
 |    |                   |  
 |    |       O           |  
 |    .-------------------.  
 |   /                   /   
 |  /                   /    
 | /                   /     
 |/                   /      
 *-------------------*       

Positions:
   0 C      4.000000    4.000000    4.000000    ( 0.0000,  0.0000,  0.0000)
   1 O      4.000000    4.000000    5.178658    ( 0.0000,  0.0000,  0.0000)
   2 O      4.000000    4.000000    2.821342    ( 0.0000,  0.0000,  0.0000)

Unit cell:
           periodic     x           y           z      points  spacing
  1. axis:    no     8.000000    0.000000    0.000000    40     0.2000
  2. axis:    no     0.000000    8.000000    0.000000    40     0.2000
  3. axis:    no     0.000000    0.000000    8.000000    40     0.2000

  Lengths:   8.000000   8.000000   8.000000
  Angles:   90.000000  90.000000  90.000000

Effective grid spacing dv^(1/3) = 0.2000

     iter     time        total  log10-change:
                         energy   eigst   dens
iter:   1 10:36:12   -22.028612        c
iter:   2 10:36:12   -21.308028        c -0.98
iter:   3 10:36:13   -21.285935        c -1.28
iter:   4 10:36:13   -21.288322        c -1.51
iter:   5 10:36:13   -21.287943c       c -2.59
iter:   6 10:36:14   -21.287734c       c -2.79
iter:   7 10:36:14   -21.287722c       c -3.32
iter:   8 10:36:14   -21.287720c       c -3.80
iter:   9 10:36:15   -21.287719c       c -4.03c

Converged after 9 iterations.

Dipole moment: (0.000000, 0.000000, 0.000000) |e|*Ang

Energy contributions relative to reference atoms: (reference = -5109.332718)

Kinetic:        +15.791605
Potential:      -18.047879
External:        +0.000000
XC:             -19.826743
Entropy (-ST):   +0.000000
Local:           +0.795299
SIC:             +0.000000
--------------------------
Free energy:    -21.287719
Extrapolated:   -21.287719

 Band  Eigenvalues  Occupancy
    0    -28.84922    2.00000
    1    -27.78561    2.00000
    2    -13.58331    2.00000
    3    -12.31000    2.00000
    4    -12.28226    2.00000
    5    -12.28226    2.00000
    6     -8.67296    2.00000
    7     -8.67296    2.00000
    8     -0.21475    0.00000
    9     -0.21475    0.00000
   10      2.05295    0.00000
   11      9.22156    0.00000

Fermi level: -4.44385

Gap: 8.458 eV
Transition (v -> c):
  (s=0, k=0, n=7, [0.00, 0.00, 0.00]) -> (s=0, k=0, n=8, [0.00, 0.00, 0.00])
No difference between direct/indirect transitions

Forces in eV/Ang:
  0 C     0.00000    0.00000    0.00000
  1 O    -0.00000    0.00000    1.13684
  2 O    -0.00000    0.00000   -1.13684

System changes: positions 

Initializing position-dependent things.

Density initialized from wave functions
      .-------------------.  
     /|                   |  
    / |                   |  
   /  |                   |  
  /   |                   |  
 *    |                   |  
 |    |       O           |  
 |    |       C           |  
 |    |                   |  
 |    |       O           |  
 |    .-------------------.  
 |   /                   /   
 |  /                   /    
 | /                   /     
 |/                   /      
 *-------------------*       

Positions:
   0 C      4.000000    4.000000    4.000000    ( 0.0000,  0.0000,  0.0000)
   1 O      4.000000    4.000000    5.194899    ( 0.0000,  0.0000,  0.0000)
   2 O      4.000000    4.000000    2.805101    ( 0.0000,  0.0000,  0.0000)

Unit cell:
           periodic     x           y           z      points  spacing
  1. axis:    no     8.000000    0.000000    0.000000    40     0.2000
  2. axis:    no     0.000000    8.000000    0.000000    40     0.2000
  3. axis:    no     0.000000    0.000000    8.000000    40     0.2000

  Lengths:   8.000000   8.000000   8.000000
  Angles:   90.000000  90.000000  90.000000

Effective grid spacing dv^(1/3) = 0.2000

     iter     time        total  log10-change:
                         energy   eigst   dens
iter:   1 10:36:15   -21.303296        c
iter:   2 10:36:15   -21.296688        c -2.12
iter:   3 10:36:16   -21.296336c       c -2.62
iter:   4 10:36:16   -21.296216c       c -2.82
iter:   5 10:36:16   -21.296213c       c -3.56
iter:   6 10:36:17   -21.296210c       c -3.75
iter:   7 10:36:17   -21.296210c       c -4.60c

Converged after 7 iterations.

Dipole moment: (-0.000000, -0.000000, 0.000000) |e|*Ang

Energy contributions relative to reference atoms: (reference = -5109.332718)

Kinetic:        +12.263710
Potential:      -15.329772
External:        +0.000000
XC:             -19.017079
Entropy (-ST):   +0.000000
Local:           +0.786932
SIC:             +0.000000
--------------------------
Free energy:    -21.296210
Extrapolated:   -21.296210

 Band  Eigenvalues  Occupancy
    0    -28.64595    2.00000
    1    -27.58740    2.00000
    2    -13.66608    2.00000
    3    -12.30621    2.00000
    4    -12.13769    2.00000
    5    -12.13769    2.00000
    6     -8.66021    2.00000
    7     -8.66021    2.00000
    8     -0.49667    0.00000
    9     -0.49667    0.00000
   10      1.72495    0.00000
   11      9.26794    0.00000

Fermi level: -4.57844

Gap: 8.164 eV
Transition (v -> c):
  (s=0, k=0, n=7, [0.00, 0.00, 0.00]) -> (s=0, k=0, n=8, [0.00, 0.00, 0.00])
No difference between direct/indirect transitions

Forces in eV/Ang:
  0 C     0.00000    0.00000    0.00000
  1 O     0.00000    0.00000   -0.57354
  2 O     0.00000    0.00000    0.57354

System changes: positions 

Initializing position-dependent things.

Density initialized from wave functions
      .-------------------.  
     /|                   |  
    / |                   |  
   /  |                   |  
  /   |                   |  
 *    |                   |  
 |    |       O           |  
 |    |       C           |  
 |    |                   |  
 |    |       O           |  
 |    .-------------------.  
 |   /                   /   
 |  /                   /    
 | /                   /     
 |/                   /      
 *-------------------*       

Positions:
   0 C      4.000000    4.000000    4.000000    ( 0.0000,  0.0000,  0.0000)
   1 O      4.000000    4.000000    5.189453    ( 0.0000,  0.0000,  0.0000)
   2 O      4.000000    4.000000    2.810547    ( 0.0000,  0.0000,  0.0000)

Unit cell:
           periodic     x           y           z      points  spacing
  1. axis:    no     8.000000    0.000000    0.000000    40     0.2000
  2. axis:    no     0.000000    8.000000    0.000000    40     0.2000
  3. axis:    no     0.000000    0.000000    8.000000    40     0.2000

  Lengths:   8.000000   8.000000   8.000000
  Angles:   90.000000  90.000000  90.000000

Effective grid spacing dv^(1/3) = 0.2000

     iter     time        total  log10-change:
                         energy   eigst   dens
iter:   1 10:36:17   -21.300323        c
iter:   2 10:36:18   -21.299595        c -2.60
iter:   3 10:36:18   -21.299550c       c -3.09
iter:   4 10:36:18   -21.299531c       c -3.30
iter:   5 10:36:19   -21.299531c       c -4.04c

Converged after 5 iterations.

Dipole moment: (-0.000000, -0.000000, -0.000000) |e|*Ang

Energy contributions relative to reference atoms: (reference = -5109.332718)

Kinetic:        +13.421499
Potential:      -16.233580
External:        +0.000000
XC:             -19.287186
Entropy (-ST):   +0.000000
Local:           +0.799736
SIC:             +0.000000
--------------------------
Free energy:    -21.299531
Extrapolated:   -21.299531

 Band  Eigenvalues  Occupancy
    0    -28.71313    2.00000
    1    -27.65249    2.00000
    2    -13.63753    2.00000
    3    -12.30668    2.00000
    4    -12.18472    2.00000
    5    -12.18472    2.00000
    6     -8.66368    2.00000
    7     -8.66368    2.00000
    8     -0.40239    0.00000
    9     -0.40239    0.00000
   10      1.83632    0.00000
   11      9.25314    0.00000

Fermi level: -4.53304

Gap: 8.261 eV
Transition (v -> c):
  (s=0, k=0, n=7, [0.00, 0.00, 0.00]) -> (s=0, k=0, n=8, [0.00, 0.00, 0.00])
No difference between direct/indirect transitions
