4
 energy: -4.426121326472 gnorm: 0.008066176629 xtb: 6.7.1 (d3f212ba83287290efafee6580670d02d7b2f49d)
N            4.00000000000000        3.76506700000000        4.19414850000000
H            4.00000000000000        4.70479800000000        3.80585150000000
H            4.81383100000000        3.29520200000000        3.80585150000000
H            3.18616900000000        3.29520200000000        3.80585150000000
4
 energy: -4.426216499586 gnorm: 0.004122483964 xtb: 6.7.1 (d3f212ba83287290efafee6580670d02d7b2f49d)
N            4.00000000090555        3.76506713789985        4.18550437996097
H            3.99999999961955        4.70752144957390        3.80873290928907
H            4.81618939659353        3.29384020619506        3.80873285559101
H            3.18381060288137        3.29384020633120        3.80873285515895
4
 energy: -4.426243909549 gnorm: 0.000314826771 xtb: 6.7.1 (d3f212ba83287290efafee6580670d02d7b2f49d)
N            4.00000000035234        3.76506724233858        4.17851919917475
H            3.99999999917106        4.70891675548761        3.81106133000207
H            4.81739763270258        3.29314250047074        3.81106123549564
H            3.18260236777401        3.29314250170307        3.81106123532754
4
 energy: -4.426244010641 gnorm: 0.000141385803 xtb: 6.7.1 (d3f212ba83287290efafee6580670d02d7b2f49d)
N            4.00000000005522        3.76506723792758        4.17783925758948
H            3.99999999954207        4.70897353195541        3.81128797582129
H            4.81744680578646        3.29311411467787        3.81128788330779
H            3.18255319461625        3.29311411543914        3.81128788328144
