
  ___ ___ ___ _ _ _  
 |   |   |_  | | | | 
 | | | | | . | | | | 
 |__ |  _|___|_____|  25.1.0
 |___|_|             

User:   elcabris@archlinux
Date:   Fri Apr 11 10:32:44 2025
Arch:   x86_64
Pid:    20512
CWD:    /home/elcabris/Documents/scientific-computing/period-4/chemistry_2/chemistry-II/practica_i/punto_1/a
Python: 3.9.21
gpaw:   /home/elcabris/Documents/scientific-computing/period-4/chemistry_2/chemistry-2-venv/lib/python3.9/site-packages/gpaw
_gpaw:  /home/elcabris/Documents/scientific-computing/period-4/chemistry_2/chemistry-2-venv/lib/python3.9/site-packages/
        _gpaw.cpython-39-x86_64-linux-gnu.so
ase:    /home/elcabris/Documents/scientific-computing/period-4/chemistry_2/chemistry-2-venv/lib/python3.9/site-packages/ase (version 3.24.0)
numpy:  /home/elcabris/Documents/scientific-computing/period-4/chemistry_2/chemistry-2-venv/lib/python3.9/site-packages/numpy (version 2.0.2)
scipy:  /home/elcabris/Documents/scientific-computing/period-4/chemistry_2/chemistry-2-venv/lib/python3.9/site-packages/scipy (version 1.13.1)
libxc:  7.0.0
units:  Angstrom and eV
cores: 1
OpenMP: False
OMP_NUM_THREADS: 1

Input parameters:
  basis: dzp
  mode: lcao
  xc: PBE

System changes: positions, numbers, cell, pbc, initial_charges, initial_magmoms 

Initialize ...

species:
  C:
    name: Carbon
    id: 4aa54d4b901d75f77cc0ea3eec22967b
    Z: 6.0
    valence: 4
    core: 2
    charge: 0.0
    file: /home/elcabris/gpaw-setups/gpaw-setups-24.11.0/C.PBE.gz
    compensation charges: {type: gauss,
                           rc: 0.20,
                           lmax: 2}
    cutoffs: {filter: 1.14,
              core: 1.14}
    projectors:
      #              energy  rcut
      - 2s(2.00)   -13.751   0.635
      - 2p(2.00)    -5.284   0.635
      -  s          13.461   0.635
      -  p          21.927   0.635
      -  d           0.000   0.635
  
    # LCAO basis set for C:
    #   Name: dzp
    #   File: /home/elcabris/gpaw-setups/gpaw-setups-24.11.0/C.dzp.basis.gz
    #   Number of radial functions: 5
    #   Number of spherical harmonics: 13
    #     l=0, rc=5.5469 Bohr: 2s-sz confined orbital
    #     l=1, rc=6.6719 Bohr: 2p-sz confined orbital
    #     l=0, rc=3.0312 Bohr: 2s-dz split-valence wave
    #     l=1, rc=3.7500 Bohr: 2p-dz split-valence wave
    #     l=2, rc=6.6719 Bohr: d-type Gaussian polarization
    #   Number of RI-basis functions 0

  O:
    name: Oxygen
    id: 32ecd46bf208036f09c70b0ec9a88b78
    Z: 8.0
    valence: 6
    core: 2
    charge: 0.0
    file: /home/elcabris/gpaw-setups/gpaw-setups-24.11.0/O.PBE.gz
    compensation charges: {type: gauss,
                           rc: 0.21,
                           lmax: 2}
    cutoffs: {filter: 1.17,
              core: 0.83}
    projectors:
      #              energy  rcut
      - 2s(2.00)   -23.961   0.688
      - 2p(4.00)    -9.029   0.598
      -  s           3.251   0.688
      -  p          18.182   0.598
      -  d           0.000   0.619
  
    # LCAO basis set for O:
    #   Name: dzp
    #   File: /home/elcabris/gpaw-setups/gpaw-setups-24.11.0/O.dzp.basis.gz
    #   Number of radial functions: 5
    #   Number of spherical harmonics: 13
    #     l=0, rc=4.3438 Bohr: 2s-sz confined orbital
    #     l=1, rc=5.3906 Bohr: 2p-sz confined orbital
    #     l=0, rc=2.2969 Bohr: 2s-dz split-valence wave
    #     l=1, rc=2.8906 Bohr: 2p-dz split-valence wave
    #     l=2, rc=5.3906 Bohr: d-type Gaussian polarization
    #   Number of RI-basis functions 0

  H:
    name: Hydrogen
    id: d65de229564ff8ea4db303e23b6d1ecf
    Z: 1.0
    valence: 1
    core: 0
    charge: 0.0
    file: /home/elcabris/gpaw-setups/gpaw-setups-24.11.0/H.PBE.gz
    compensation charges: {type: gauss,
                           rc: 0.15,
                           lmax: 2}
    cutoffs: {filter: 0.85,
              core: 0.53}
    projectors:
      #              energy  rcut
      - 1s(1.00)    -6.494   0.476
      -  s          20.717   0.476
      -  p           0.000   0.476
  
    # LCAO basis set for H:
    #   Name: dzp
    #   File: /home/elcabris/gpaw-setups/gpaw-setups-24.11.0/H.dzp.basis.gz
    #   Number of radial functions: 3
    #   Number of spherical harmonics: 5
    #     l=0, rc=6.4219 Bohr: 1s-sz confined orbital
    #     l=0, rc=3.6094 Bohr: 1s-dz split-valence wave
    #     l=1, rc=6.4219 Bohr: p-type Gaussian polarization
    #   Number of RI-basis functions 0

Reference energy: -3118.441066  # eV

Spin-paired calculation

Convergence criteria:
 Maximum [total energy] change in last 3 cyles: 0.0005 eV / valence electron
 Maximum integral of absolute [dens]ity change: 0.0001 electrons / valence electron
 Maximum integral of absolute [eigenst]ate change: 4e-08 eV^2 / valence electron
 Maximum number of scf [iter]ations: 333
 (Square brackets indicate name in SCF output, whereas a 'c' in
 the SCF output indicates the quantity has converged.)

Symmetries present (total): 2

  ( 1  0  0)  ( 1  0  0)
  ( 0  1  0)  ( 0  1  0)
  ( 0  0  1)  ( 0  0 -1)

1 k-point (Gamma)
1 k-point in the irreducible part of the Brillouin zone
       k-points in crystal coordinates                weights
   0:     0.00000000    0.00000000    0.00000000          1/1

Wave functions: LCAO
  Diagonalizer: Serial LAPACK
  Atomic Correction: dense with blas
  Data-type: float
 

Occupation numbers: # Zero width 

Eigensolver
   LCAO using direct dense diagonalizer 

Densities:
  Coarse grid: 40*40*40 grid
  Fine grid: 80*80*80 grid
  Total Charge: 0.000000 

Density mixing:
  Method: separate
  Backend: pulay
  Linear mixing parameter: 0.25
  old densities: 3
  Damping of long wavelength oscillations: 1  # (no daming) 

Hamiltonian:
  XC and Coulomb potentials evaluated on a 80*80*80 grid
  Using the PBE Exchange-Correlation functional
  Interpolation: tri-quintic (5. degree polynomial)
  Poisson solver: FastPoissonSolver using
    Stencil: 6*3+1=19 point O(h^6) finite-difference Laplacian
    FFT axes: []
    FST axes: [np.int64(0), np.int64(1), np.int64(2)]
 

XC parameters: PBE with 2 nearest neighbor stencil

Memory estimate:
  Process memory now: 191.77 MiB
  Calculator: 30.52 MiB
    Density: 17.25 MiB
      Arrays: 12.19 MiB
      Localized functions: 2.34 MiB
      Mixer: 2.72 MiB
    Hamiltonian: 8.15 MiB
      Arrays: 7.98 MiB
      XC: 0.00 MiB
      Poisson: 0.00 MiB
      vbar: 0.18 MiB
    Wavefunctions: 5.12 MiB
      C [qnM]: 0.00 MiB
      S, T [2 x qmm]: 0.03 MiB
      P [aqMi]: 0.00 MiB
      BasisFunctions: 5.08 MiB
      Eigensolver: 0.00 MiB

Total number of cores used: 1

Number of atoms: 6
Number of atomic orbitals: 46
Number of bands in calculation: 12
Number of valence electrons: 14
Bands to converge: occupied

... initialized

Initializing position-dependent things.

Density initialized from atomic densities
      .-------------------.  
     /|                   |  
    / |                   |  
   /  |                   |  
  /   |                   |  
 *    |                   |  
 |    |         H         |  
 |    |     H C           |  
 |    |      O HH         |  
 |    |                   |  
 |    .-------------------.  
 |   /                   /   
 |  /                   /    
 | /                   /     
 |/                   /      
 *-------------------*       

Positions:
   0 C      4.060099    4.648430    4.000000    ( 0.0000,  0.0000,  0.0000)
   1 O      4.060099    3.225490    4.000000    ( 0.0000,  0.0000,  0.0000)
   2 H      3.014235    4.953826    4.000000    ( 0.0000,  0.0000,  0.0000)
   3 H      4.985765    2.935583    4.000000    ( 0.0000,  0.0000,  0.0000)
   4 H      4.544376    5.064417    4.891772    ( 0.0000,  0.0000,  0.0000)
   5 H      4.544376    5.064417    3.108228    ( 0.0000,  0.0000,  0.0000)

Unit cell:
           periodic     x           y           z      points  spacing
  1. axis:    no     8.000000    0.000000    0.000000    40     0.2000
  2. axis:    no     0.000000    8.000000    0.000000    40     0.2000
  3. axis:    no     0.000000    0.000000    8.000000    40     0.2000

  Lengths:   8.000000   8.000000   8.000000
  Angles:   90.000000  90.000000  90.000000

Effective grid spacing dv^(1/3) = 0.2000

     iter     time        total  log10-change:
                         energy   eigst   dens
iter:   1 10:32:46   -30.314061        c
iter:   2 10:32:46   -29.241521        c -0.75
iter:   3 10:32:47   -28.814873        c -0.92
iter:   4 10:32:47   -28.757041        c -1.28
iter:   5 10:32:48   -28.755006        c -2.10
iter:   6 10:32:48   -28.754329c       c -2.38
iter:   7 10:32:48   -28.754121c       c -2.70
iter:   8 10:32:49   -28.754120c       c -3.31
iter:   9 10:32:49   -28.754119c       c -3.48
iter:  10 10:32:49   -28.754119c       c -4.43c

Converged after 10 iterations.

Dipole moment: (0.263224, 0.152633, 0.000000) |e|*Ang

Energy contributions relative to reference atoms: (reference = -3118.441066)

Kinetic:        +25.970165
Potential:      -27.844885
External:        +0.000000
XC:             -27.315444
Entropy (-ST):   +0.000000
Local:           +0.436045
SIC:             +0.000000
--------------------------
Free energy:    -28.754119
Extrapolated:   -28.754119

 Band  Eigenvalues  Occupancy
    0    -25.10578    2.00000
    1    -16.69219    2.00000
    2    -12.21938    2.00000
    3    -10.42103    2.00000
    4    -10.09137    2.00000
    5     -7.67249    2.00000
    6     -5.81002    2.00000
    7      1.42074    0.00000
    8      2.63421    0.00000
    9      3.76439    0.00000
   10      3.91829    0.00000
   11      4.71820    0.00000

Fermi level: -2.19464

Gap: 7.231 eV
Transition (v -> c):
  (s=0, k=0, n=6, [0.00, 0.00, 0.00]) -> (s=0, k=0, n=7, [0.00, 0.00, 0.00])
No difference between direct/indirect transitions

Forces in eV/Ang:
  0 C     0.15203   -0.63300    0.00000
  1 O    -0.72081   -0.29574    0.00000
  2 H    -0.74635    0.29057    0.00000
  3 H     0.66380   -0.18450    0.00000
  4 H     0.32248    0.35429    0.61204
  5 H     0.32248    0.35429   -0.61204

System changes: positions 

Initializing position-dependent things.

Density initialized from wave functions
      .-------------------.  
     /|                   |  
    / |                   |  
   /  |                   |  
  /   |                   |  
 *    |                   |  
 |    |         H         |  
 |    |     H C           |  
 |    |      O HH         |  
 |    |                   |  
 |    .-------------------.  
 |   /                   /   
 |  /                   /    
 | /                   /     
 |/                   /      
 *-------------------*       

Positions:
   0 C      4.062271    4.639387    4.000000    ( 0.0000,  0.0000,  0.0000)
   1 O      4.049802    3.221265    4.000000    ( 0.0000,  0.0000,  0.0000)
   2 H      3.003573    4.957977    4.000000    ( 0.0000,  0.0000,  0.0000)
   3 H      4.995247    2.932947    4.000000    ( 0.0000,  0.0000,  0.0000)
   4 H      4.548982    5.069478    4.900515    ( 0.0000,  0.0000,  0.0000)
   5 H      4.548982    5.069478    3.099485    ( 0.0000,  0.0000,  0.0000)

Unit cell:
           periodic     x           y           z      points  spacing
  1. axis:    no     8.000000    0.000000    0.000000    40     0.2000
  2. axis:    no     0.000000    8.000000    0.000000    40     0.2000
  3. axis:    no     0.000000    0.000000    8.000000    40     0.2000

  Lengths:   8.000000   8.000000   8.000000
  Angles:   90.000000  90.000000  90.000000

Effective grid spacing dv^(1/3) = 0.2000

     iter     time        total  log10-change:
                         energy   eigst   dens
iter:   1 10:32:50   -28.786286        c
iter:   2 10:32:50   -28.782893        c -2.28
iter:   3 10:32:50   -28.782510c       c -2.61
iter:   4 10:32:51   -28.782467c       c -2.84
iter:   5 10:32:51   -28.782467c       c -3.48
iter:   6 10:32:51   -28.782467c       c -3.71
iter:   7 10:32:52   -28.782467c       c -4.22c

Converged after 7 iterations.

Dipole moment: (0.266822, 0.143826, 0.000000) |e|*Ang

Energy contributions relative to reference atoms: (reference = -3118.441066)

Kinetic:        +23.896977
Potential:      -26.355997
External:        +0.000000
XC:             -26.752331
Entropy (-ST):   +0.000000
Local:           +0.428884
SIC:             +0.000000
--------------------------
Free energy:    -28.782467
Extrapolated:   -28.782467

 Band  Eigenvalues  Occupancy
    0    -25.10079    2.00000
    1    -16.55619    2.00000
    2    -12.19263    2.00000
    3    -10.35726    2.00000
    4    -10.03531    2.00000
    5     -7.68977    2.00000
    6     -5.82827    2.00000
    7      1.29442    0.00000
    8      2.54564    0.00000
    9      3.63575    0.00000
   10      3.82557    0.00000
   11      4.71466    0.00000

Fermi level: -2.26692

Gap: 7.123 eV
Transition (v -> c):
  (s=0, k=0, n=6, [0.00, 0.00, 0.00]) -> (s=0, k=0, n=7, [0.00, 0.00, 0.00])
No difference between direct/indirect transitions

Forces in eV/Ang:
  0 C    -0.12440    0.03479    0.00000
  1 O     0.15910   -0.57952    0.00000
  2 H    -0.23717    0.14343    0.00000
  3 H    -0.16776   -0.01098    0.00000
  4 H     0.14893    0.14752    0.26588
  5 H     0.14893    0.14752   -0.26588

System changes: positions 

Initializing position-dependent things.

Density initialized from wave functions
      .-------------------.  
     /|                   |  
    / |                   |  
   /  |                   |  
  /   |                   |  
 *    |                   |  
 |    |         H         |  
 |    |     H C           |  
 |    |      O HH         |  
 |    |                   |  
 |    .-------------------.  
 |   /                   /   
 |  /                   /    
 | /                   /     
 |/                   /      
 *-------------------*       

Positions:
   0 C      4.060650    4.637573    4.000000    ( 0.0000,  0.0000,  0.0000)
   1 O      4.049854    3.209857    4.000000    ( 0.0000,  0.0000,  0.0000)
   2 H      2.996503    4.961635    4.000000    ( 0.0000,  0.0000,  0.0000)
   3 H      4.994823    2.932044    4.000000    ( 0.0000,  0.0000,  0.0000)
   4 H      4.552861    5.073454    4.907579    ( 0.0000,  0.0000,  0.0000)
   5 H      4.552861    5.073454    3.092421    ( 0.0000,  0.0000,  0.0000)

Unit cell:
           periodic     x           y           z      points  spacing
  1. axis:    no     8.000000    0.000000    0.000000    40     0.2000
  2. axis:    no     0.000000    8.000000    0.000000    40     0.2000
  3. axis:    no     0.000000    0.000000    8.000000    40     0.2000

  Lengths:   8.000000   8.000000   8.000000
  Angles:   90.000000  90.000000  90.000000

Effective grid spacing dv^(1/3) = 0.2000

     iter     time        total  log10-change:
                         energy   eigst   dens
iter:   1 10:32:52   -28.791852        c
iter:   2 10:32:53   -28.790813        c -2.52
iter:   3 10:32:53   -28.790673c       c -2.81
iter:   4 10:32:53   -28.790660c       c -3.09
iter:   5 10:32:54   -28.790661c       c -3.64
iter:   6 10:32:54   -28.790661c       c -3.85
iter:   7 10:32:54   -28.790661c       c -4.56c

Converged after 7 iterations.

Dipole moment: (0.265873, 0.149065, 0.000000) |e|*Ang

Energy contributions relative to reference atoms: (reference = -3118.441066)

Kinetic:        +22.654117
Potential:      -25.458574
External:        +0.000000
XC:             -26.417431
Entropy (-ST):   +0.000000
Local:           +0.431228
SIC:             +0.000000
--------------------------
Free energy:    -28.790661
Extrapolated:   -28.790661

 Band  Eigenvalues  Occupancy
    0    -25.05974    2.00000
    1    -16.51837    2.00000
    2    -12.14535    2.00000
    3    -10.28909    2.00000
    4    -10.00261    2.00000
    5     -7.72524    2.00000
    6     -5.84588    2.00000
    7      1.30215    0.00000
    8      2.46514    0.00000
    9      3.56590    0.00000
   10      3.73278    0.00000
   11      4.60568    0.00000

Fermi level: -2.27187

Gap: 7.148 eV
Transition (v -> c):
  (s=0, k=0, n=6, [0.00, 0.00, 0.00]) -> (s=0, k=0, n=7, [0.00, 0.00, 0.00])
No difference between direct/indirect transitions

Forces in eV/Ang:
  0 C    -0.05464    0.07330    0.00000
  1 O     0.00571   -0.08191    0.00000
  2 H    -0.01736    0.04489    0.00000
  3 H    -0.01020   -0.07691    0.00000
  4 H     0.00514   -0.00241    0.00133
  5 H     0.00514   -0.00241   -0.00133

System changes: positions 

Initializing position-dependent things.

Density initialized from wave functions
      .-------------------.  
     /|                   |  
    / |                   |  
   /  |                   |  
  /   |                   |  
 *    |                   |  
 |    |         H         |  
 |    |     H C           |  
 |    |      O HH         |  
 |    |                   |  
 |    .-------------------.  
 |   /                   /   
 |  /                   /    
 | /                   /     
 |/                   /      
 *-------------------*       

Positions:
   0 C      4.059830    4.638421    4.000000    ( 0.0000,  0.0000,  0.0000)
   1 O      4.049645    3.208242    4.000000    ( 0.0000,  0.0000,  0.0000)
   2 H      2.995790    4.962525    4.000000    ( 0.0000,  0.0000,  0.0000)
   3 H      4.994932    2.930749    4.000000    ( 0.0000,  0.0000,  0.0000)
   4 H      4.553147    5.073638    4.907985    ( 0.0000,  0.0000,  0.0000)
   5 H      4.553147    5.073638    3.092015    ( 0.0000,  0.0000,  0.0000)

Unit cell:
           periodic     x           y           z      points  spacing
  1. axis:    no     8.000000    0.000000    0.000000    40     0.2000
  2. axis:    no     0.000000    8.000000    0.000000    40     0.2000
  3. axis:    no     0.000000    0.000000    8.000000    40     0.2000

  Lengths:   8.000000   8.000000   8.000000
  Angles:   90.000000  90.000000  90.000000

Effective grid spacing dv^(1/3) = 0.2000

     iter     time        total  log10-change:
                         energy   eigst   dens
iter:   1 10:32:55   -28.790942        c
iter:   2 10:32:55   -28.790932        c -3.36
iter:   3 10:32:55   -28.790928c       c -3.60
iter:   4 10:32:56   -28.790928c       c -4.14c

Converged after 4 iterations.

Dipole moment: (0.265799, 0.150633, -0.000000) |e|*Ang

Energy contributions relative to reference atoms: (reference = -3118.441066)

Kinetic:        +22.504478
Potential:      -25.348818
External:        +0.000000
XC:             -26.375441
Entropy (-ST):   +0.000000
Local:           +0.428853
SIC:             +0.000000
--------------------------
Free energy:    -28.790928
Extrapolated:   -28.790928

 Band  Eigenvalues  Occupancy
    0    -25.03777    2.00000
    1    -16.51795    2.00000
    2    -12.13182    2.00000
    3    -10.28100    2.00000
    4     -9.99819    2.00000
    5     -7.72881    2.00000
    6     -5.84484    2.00000
    7      1.29879    0.00000
    8      2.45636    0.00000
    9      3.56333    0.00000
   10      3.72518    0.00000
   11      4.57866    0.00000

Fermi level: -2.27302

Gap: 7.144 eV
Transition (v -> c):
  (s=0, k=0, n=6, [0.00, 0.00, 0.00]) -> (s=0, k=0, n=7, [0.00, 0.00, 0.00])
No difference between direct/indirect transitions

Forces in eV/Ang:
  0 C    -0.01885    0.01016    0.00000
  1 O    -0.00159   -0.00020    0.00000
  2 H    -0.01745    0.03953    0.00000
  3 H    -0.01724   -0.06593    0.00000
  4 H    -0.00630   -0.01030   -0.01367
  5 H    -0.00630   -0.01030    0.01367

System changes: positions 

Initializing position-dependent things.

Density initialized from wave functions
      .-------------------.  
     /|                   |  
    / |                   |  
   /  |                   |  
  /   |                   |  
 *    |                   |  
 |    |         H         |  
 |    |     H C           |  
 |    |      O HH         |  
 |    |                   |  
 |    .-------------------.  
 |   /                   /   
 |  /                   /    
 | /                   /     
 |/                   /      
 *-------------------*       

Positions:
   0 C      4.059104    4.638913    4.000000    ( 0.0000,  0.0000,  0.0000)
   1 O      4.049498    3.207525    4.000000    ( 0.0000,  0.0000,  0.0000)
   2 H      2.995044    4.963771    4.000000    ( 0.0000,  0.0000,  0.0000)
   3 H      4.994621    2.928802    4.000000    ( 0.0000,  0.0000,  0.0000)
   4 H      4.553164    5.073531    4.907927    ( 0.0000,  0.0000,  0.0000)
   5 H      4.553164    5.073531    3.092073    ( 0.0000,  0.0000,  0.0000)

Unit cell:
           periodic     x           y           z      points  spacing
  1. axis:    no     8.000000    0.000000    0.000000    40     0.2000
  2. axis:    no     0.000000    8.000000    0.000000    40     0.2000
  3. axis:    no     0.000000    0.000000    8.000000    40     0.2000

  Lengths:   8.000000   8.000000   8.000000
  Angles:   90.000000  90.000000  90.000000

Effective grid spacing dv^(1/3) = 0.2000

     iter     time        total  log10-change:
                         energy   eigst   dens
iter:   1 10:32:56   -28.791107        c
iter:   2 10:32:56   -28.791102        c -3.55
iter:   3 10:32:57   -28.791100c       c -3.77
iter:   4 10:32:57   -28.791100c       c -4.28c

Converged after 4 iterations.

Dipole moment: (0.265743, 0.151191, -0.000000) |e|*Ang

Energy contributions relative to reference atoms: (reference = -3118.441066)

Kinetic:        +22.418420
Potential:      -25.286128
External:        +0.000000
XC:             -26.354088
Entropy (-ST):   +0.000000
Local:           +0.430696
SIC:             +0.000000
--------------------------
Free energy:    -28.791100
Extrapolated:   -28.791100

 Band  Eigenvalues  Occupancy
    0    -25.02450    2.00000
    1    -16.51882    2.00000
    2    -12.12557    2.00000
    3    -10.27706    2.00000
    4     -9.99696    2.00000
    5     -7.72675    2.00000
    6     -5.84314    2.00000
    7      1.29695    0.00000
    8      2.45162    0.00000
    9      3.56254    0.00000
   10      3.72327    0.00000
   11      4.56549    0.00000

Fermi level: -2.27309

Gap: 7.140 eV
Transition (v -> c):
  (s=0, k=0, n=6, [0.00, 0.00, 0.00]) -> (s=0, k=0, n=7, [0.00, 0.00, 0.00])
No difference between direct/indirect transitions

Forces in eV/Ang:
  0 C    -0.00096   -0.02413    0.00000
  1 O    -0.01265    0.03057    0.00000
  2 H    -0.00860    0.03054    0.00000
  3 H    -0.02393   -0.04969    0.00000
  4 H    -0.01038   -0.01037   -0.01546
  5 H    -0.01038   -0.01037    0.01546

System changes: positions 

Initializing position-dependent things.

Density initialized from wave functions
      .-------------------.  
     /|                   |  
    / |                   |  
   /  |                   |  
  /   |                   |  
 *    |                   |  
 |    |         H         |  
 |    |     H C           |  
 |    |      O HH         |  
 |    |                   |  
 |    .-------------------.  
 |   /                   /   
 |  /                   /    
 | /                   /     
 |/                   /      
 *-------------------*       

Positions:
   0 C      4.057986    4.639182    4.000000    ( 0.0000,  0.0000,  0.0000)
   1 O      4.049044    3.207047    4.000000    ( 0.0000,  0.0000,  0.0000)
   2 H      2.993951    4.966167    4.000000    ( 0.0000,  0.0000,  0.0000)
   3 H      4.993506    2.924992    4.000000    ( 0.0000,  0.0000,  0.0000)
   4 H      4.552940    5.073143    4.907484    ( 0.0000,  0.0000,  0.0000)
   5 H      4.552940    5.073143    3.092516    ( 0.0000,  0.0000,  0.0000)

Unit cell:
           periodic     x           y           z      points  spacing
  1. axis:    no     8.000000    0.000000    0.000000    40     0.2000
  2. axis:    no     0.000000    8.000000    0.000000    40     0.2000
  3. axis:    no     0.000000    0.000000    8.000000    40     0.2000

  Lengths:   8.000000   8.000000   8.000000
  Angles:   90.000000  90.000000  90.000000

Effective grid spacing dv^(1/3) = 0.2000

     iter     time        total  log10-change:
                         energy   eigst   dens
iter:   1 10:32:58   -28.791323        c
iter:   2 10:32:58   -28.791317        c -3.46
iter:   3 10:32:58   -28.791314c       c -3.65
iter:   4 10:32:59   -28.791314c       c -4.15c

Converged after 4 iterations.

Dipole moment: (0.265738, 0.151023, -0.000000) |e|*Ang

Energy contributions relative to reference atoms: (reference = -3118.441066)

Kinetic:        +22.340428
Potential:      -25.226139
External:        +0.000000
XC:             -26.337179
Entropy (-ST):   +0.000000
Local:           +0.431575
SIC:             +0.000000
--------------------------
Free energy:    -28.791314
Extrapolated:   -28.791314

 Band  Eigenvalues  Occupancy
    0    -25.01189    2.00000
    1    -16.52103    2.00000
    2    -12.12239    2.00000
    3    -10.27355    2.00000
    4     -9.99811    2.00000
    5     -7.71897    2.00000
    6     -5.84047    2.00000
    7      1.29515    0.00000
    8      2.44699    0.00000
    9      3.56303    0.00000
   10      3.72415    0.00000
   11      4.55720    0.00000

Fermi level: -2.27266

Gap: 7.136 eV
Transition (v -> c):
  (s=0, k=0, n=6, [0.00, 0.00, 0.00]) -> (s=0, k=0, n=7, [0.00, 0.00, 0.00])
No difference between direct/indirect transitions

Forces in eV/Ang:
  0 C     0.01487   -0.05102    0.00000
  1 O    -0.03327    0.04415    0.00000
  2 H     0.00940    0.01045    0.00000
  3 H    -0.03648   -0.02082    0.00000
  4 H    -0.01119   -0.00751   -0.00916
  5 H    -0.01119   -0.00751    0.00916

System changes: positions 

Initializing position-dependent things.

Density initialized from wave functions
      .-------------------.  
     /|                   |  
    / |                   |  
   /  |                   |  
  /   |                   |  
 *    |                   |  
 |    |         H         |  
 |    |     H C           |  
 |    |      O HH         |  
 |    |                   |  
 |    .-------------------.  
 |   /                   /   
 |  /                   /    
 | /                   /     
 |/                   /      
 *-------------------*       

Positions:
   0 C      4.057219    4.638838    4.000000    ( 0.0000,  0.0000,  0.0000)
   1 O      4.048191    3.207161    4.000000    ( 0.0000,  0.0000,  0.0000)
   2 H      2.993417    4.968156    4.000000    ( 0.0000,  0.0000,  0.0000)
   3 H      4.991876    2.921673    4.000000    ( 0.0000,  0.0000,  0.0000)
   4 H      4.552564    5.072683    4.906958    ( 0.0000,  0.0000,  0.0000)
   5 H      4.552564    5.072683    3.093042    ( 0.0000,  0.0000,  0.0000)

Unit cell:
           periodic     x           y           z      points  spacing
  1. axis:    no     8.000000    0.000000    0.000000    40     0.2000
  2. axis:    no     0.000000    8.000000    0.000000    40     0.2000
  3. axis:    no     0.000000    0.000000    8.000000    40     0.2000

  Lengths:   8.000000   8.000000   8.000000
  Angles:   90.000000  90.000000  90.000000

Effective grid spacing dv^(1/3) = 0.2000

     iter     time        total  log10-change:
                         energy   eigst   dens
iter:   1 10:32:59   -28.791473        c
iter:   2 10:32:59   -28.791471        c -3.61
iter:   3 10:33:00   -28.791470c       c -3.78
iter:   4 10:33:00   -28.791470c       c -4.32c

Converged after 4 iterations.

Dipole moment: (0.265805, 0.149993, -0.000000) |e|*Ang

Energy contributions relative to reference atoms: (reference = -3118.441066)

Kinetic:        +22.328767
Potential:      -25.214521
External:        +0.000000
XC:             -26.338607
Entropy (-ST):   +0.000000
Local:           +0.432892
SIC:             +0.000000
--------------------------
Free energy:    -28.791470
Extrapolated:   -28.791470

 Band  Eigenvalues  Occupancy
    0    -25.01065    2.00000
    1    -16.52301    2.00000
    2    -12.12575    2.00000
    3    -10.27290    2.00000
    4    -10.00135    2.00000
    5     -7.71054    2.00000
    6     -5.83899    2.00000
    7      1.29475    0.00000
    8      2.44596    0.00000
    9      3.56511    0.00000
   10      3.72734    0.00000
   11      4.56192    0.00000

Fermi level: -2.27212

Gap: 7.134 eV
Transition (v -> c):
  (s=0, k=0, n=6, [0.00, 0.00, 0.00]) -> (s=0, k=0, n=7, [0.00, 0.00, 0.00])
No difference between direct/indirect transitions

Forces in eV/Ang:
  0 C     0.01887   -0.03988    0.00000
  1 O    -0.04836    0.01932    0.00000
  2 H     0.02075   -0.00602    0.00000
  3 H    -0.04751   -0.00061    0.00000
  4 H    -0.00791   -0.00439    0.00009
  5 H    -0.00791   -0.00439   -0.00009

System changes: positions 

Initializing position-dependent things.

Density initialized from wave functions
      .-------------------.  
     /|                   |  
    / |                   |  
   /  |                   |  
  /   |                   |  
 *    |                   |  
 |    |         H         |  
 |    |     H C           |  
 |    |      O HH         |  
 |    |                   |  
 |    .-------------------.  
 |   /                   /   
 |  /                   /    
 | /                   /     
 |/                   /      
 *-------------------*       

Positions:
   0 C      4.056407    4.637960    4.000000    ( 0.0000,  0.0000,  0.0000)
   1 O      4.046024    3.207295    4.000000    ( 0.0000,  0.0000,  0.0000)
   2 H      2.993149    4.970763    4.000000    ( 0.0000,  0.0000,  0.0000)
   3 H      4.988557    2.917019    4.000000    ( 0.0000,  0.0000,  0.0000)
   4 H      4.551908    5.071944    4.906255    ( 0.0000,  0.0000,  0.0000)
   5 H      4.551908    5.071944    3.093745    ( 0.0000,  0.0000,  0.0000)

Unit cell:
           periodic     x           y           z      points  spacing
  1. axis:    no     8.000000    0.000000    0.000000    40     0.2000
  2. axis:    no     0.000000    8.000000    0.000000    40     0.2000
  3. axis:    no     0.000000    0.000000    8.000000    40     0.2000

  Lengths:   8.000000   8.000000   8.000000
  Angles:   90.000000  90.000000  90.000000

Effective grid spacing dv^(1/3) = 0.2000

     iter     time        total  log10-change:
                         energy   eigst   dens
iter:   1 10:33:00   -28.791696        c
iter:   2 10:33:01   -28.791693        c -3.47
iter:   3 10:33:01   -28.791692c       c -3.67
iter:   4 10:33:01   -28.791692c       c -4.17c

Converged after 4 iterations.

Dipole moment: (0.265995, 0.148233, -0.000000) |e|*Ang

Energy contributions relative to reference atoms: (reference = -3118.441066)

Kinetic:        +22.344042
Potential:      -25.221501
External:        +0.000000
XC:             -26.347645
Entropy (-ST):   +0.000000
Local:           +0.433412
SIC:             +0.000000
--------------------------
Free energy:    -28.791692
Extrapolated:   -28.791692

 Band  Eigenvalues  Occupancy
    0    -25.01353    2.00000
    1    -16.52578    2.00000
    2    -12.13262    2.00000
    3    -10.27330    2.00000
    4    -10.00527    2.00000
    5     -7.70045    2.00000
    6     -5.83843    2.00000
    7      1.29493    0.00000
    8      2.44569    0.00000
    9      3.56758    0.00000
   10      3.73301    0.00000
   11      4.57319    0.00000

Fermi level: -2.27175

Gap: 7.133 eV
Transition (v -> c):
  (s=0, k=0, n=6, [0.00, 0.00, 0.00]) -> (s=0, k=0, n=7, [0.00, 0.00, 0.00])
No difference between direct/indirect transitions

Forces in eV/Ang:
  0 C     0.01365   -0.01470    0.00000
  1 O    -0.06557   -0.01766    0.00000
  2 H     0.03059   -0.02502    0.00000
  3 H    -0.06128    0.02012    0.00000
  4 H     0.00030   -0.00274    0.01437
  5 H     0.00030   -0.00274   -0.01437

System changes: positions 

Initializing position-dependent things.

Density initialized from wave functions
      .-------------------.  
     /|                   |  
    / |                   |  
   /  |                   |  
  /   |                   |  
 *    |                   |  
 |    |         H         |  
 |    |     H C           |  
 |    |      O HH         |  
 |    |                   |  
 |    .-------------------.  
 |   /                   /   
 |  /                   /    
 | /                   /     
 |/                   /      
 *-------------------*       

Positions:
   0 C      4.054974    4.635920    4.000000    ( 0.0000,  0.0000,  0.0000)
   1 O      4.040080    3.207145    4.000000    ( 0.0000,  0.0000,  0.0000)
   2 H      2.993217    4.975561    4.000000    ( 0.0000,  0.0000,  0.0000)
   3 H      4.980394    2.907878    4.000000    ( 0.0000,  0.0000,  0.0000)
   4 H      4.550613    5.070343    4.905168    ( 0.0000,  0.0000,  0.0000)
   5 H      4.550613    5.070343    3.094832    ( 0.0000,  0.0000,  0.0000)

Unit cell:
           periodic     x           y           z      points  spacing
  1. axis:    no     8.000000    0.000000    0.000000    40     0.2000
  2. axis:    no     0.000000    8.000000    0.000000    40     0.2000
  3. axis:    no     0.000000    0.000000    8.000000    40     0.2000

  Lengths:   8.000000   8.000000   8.000000
  Angles:   90.000000  90.000000  90.000000

Effective grid spacing dv^(1/3) = 0.2000

     iter     time        total  log10-change:
                         energy   eigst   dens
iter:   1 10:33:02   -28.792095        c
iter:   2 10:33:02   -28.792084        c -3.20
iter:   3 10:33:02   -28.792077c       c -3.39
iter:   4 10:33:03   -28.792077c       c -3.93
iter:   5 10:33:03   -28.792077c       c -4.57c

Converged after 5 iterations.

Dipole moment: (0.266495, 0.144791, -0.000000) |e|*Ang

Energy contributions relative to reference atoms: (reference = -3118.441066)

Kinetic:        +22.377152
Potential:      -25.238869
External:        +0.000000
XC:             -26.364156
Entropy (-ST):   +0.000000
Local:           +0.433796
SIC:             +0.000000
--------------------------
Free energy:    -28.792077
Extrapolated:   -28.792077

 Band  Eigenvalues  Occupancy
    0    -25.02068    2.00000
    1    -16.53054    2.00000
    2    -12.14541    2.00000
    3    -10.27385    2.00000
    4    -10.01085    2.00000
    5     -7.68494    2.00000
    6     -5.83913    2.00000
    7      1.29515    0.00000
    8      2.44493    0.00000
    9      3.57109    0.00000
   10      3.74272    0.00000
   11      4.59489    0.00000

Fermi level: -2.27199

Gap: 7.134 eV
Transition (v -> c):
  (s=0, k=0, n=6, [0.00, 0.00, 0.00]) -> (s=0, k=0, n=7, [0.00, 0.00, 0.00])
No difference between direct/indirect transitions

Forces in eV/Ang:
  0 C    -0.00044    0.03913    0.00000
  1 O    -0.07143   -0.08152    0.00000
  2 H     0.03733   -0.05003    0.00000
  3 H    -0.08951    0.06041    0.00000
  4 H     0.01618   -0.00537    0.03683
  5 H     0.01618   -0.00537   -0.03683

System changes: positions 

Initializing position-dependent things.

Density initialized from wave functions
      .-------------------.  
     /|                   |  
    / |                   |  
   /  |                   |  
  /   |                   |  
 *    |                   |  
 |    |         H         |  
 |    |     H C           |  
 |    |      O HH         |  
 |    |                   |  
 |    .-------------------.  
 |   /                   /   
 |  /                   /    
 | /                   /     
 |/                   /      
 *-------------------*       

Positions:
   0 C      4.053932    4.633891    4.000000    ( 0.0000,  0.0000,  0.0000)
   1 O      4.032978    3.206493    4.000000    ( 0.0000,  0.0000,  0.0000)
   2 H      2.993947    4.979307    4.000000    ( 0.0000,  0.0000,  0.0000)
   3 H      4.970996    2.900218    4.000000    ( 0.0000,  0.0000,  0.0000)
   4 H      4.549527    5.068640    4.904617    ( 0.0000,  0.0000,  0.0000)
   5 H      4.549527    5.068640    3.095383    ( 0.0000,  0.0000,  0.0000)

Unit cell:
           periodic     x           y           z      points  spacing
  1. axis:    no     8.000000    0.000000    0.000000    40     0.2000
  2. axis:    no     0.000000    8.000000    0.000000    40     0.2000
  3. axis:    no     0.000000    0.000000    8.000000    40     0.2000

  Lengths:   8.000000   8.000000   8.000000
  Angles:   90.000000  90.000000  90.000000

Effective grid spacing dv^(1/3) = 0.2000

     iter     time        total  log10-change:
                         energy   eigst   dens
iter:   1 10:33:04   -28.792681        c
iter:   2 10:33:04   -28.792671        c -3.25
iter:   3 10:33:04   -28.792664c       c -3.42
iter:   4 10:33:05   -28.792664c       c -4.09c

Converged after 4 iterations.

Dipole moment: (0.267014, 0.142018, 0.000000) |e|*Ang

Energy contributions relative to reference atoms: (reference = -3118.441066)

Kinetic:        +22.424918
Potential:      -25.270287
External:        +0.000000
XC:             -26.381830
Entropy (-ST):   +0.000000
Local:           +0.434534
SIC:             +0.000000
--------------------------
Free energy:    -28.792664
Extrapolated:   -28.792664

 Band  Eigenvalues  Occupancy
    0    -25.02978    2.00000
    1    -16.53522    2.00000
    2    -12.15581    2.00000
    3    -10.27472    2.00000
    4    -10.01345    2.00000
    5     -7.67734    2.00000
    6     -5.84217    2.00000
    7      1.29838    0.00000
    8      2.44455    0.00000
    9      3.57239    0.00000
   10      3.74939    0.00000
   11      4.61231    0.00000

Fermi level: -2.27189

Gap: 7.141 eV
Transition (v -> c):
  (s=0, k=0, n=6, [0.00, 0.00, 0.00]) -> (s=0, k=0, n=7, [0.00, 0.00, 0.00])
No difference between direct/indirect transitions

Forces in eV/Ang:
  0 C    -0.01635    0.08286    0.00000
  1 O    -0.07899   -0.11639    0.00000
  2 H     0.03033   -0.05638    0.00000
  3 H    -0.09295    0.07624    0.00000
  4 H     0.03015   -0.01307    0.04953
  5 H     0.03015   -0.01307   -0.04953

System changes: positions 

Initializing position-dependent things.

Density initialized from wave functions
      .-------------------.  
     /|                   |  
    / |                   |  
   /  |                   |  
  /   |                   |  
 *    |                   |  
 |    |         H         |  
 |    |     H C           |  
 |    |      O HH         |  
 |    |                   |  
 |    .-------------------.  
 |   /                   /   
 |  /                   /    
 | /                   /     
 |/                   /      
 *-------------------*       

Positions:
   0 C      4.047712    4.623108    4.000000    ( 0.0000,  0.0000,  0.0000)
   1 O      3.987755    3.200762    4.000000    ( 0.0000,  0.0000,  0.0000)
   2 H      2.998525    5.000212    4.000000    ( 0.0000,  0.0000,  0.0000)
   3 H      4.912935    2.857012    4.000000    ( 0.0000,  0.0000,  0.0000)
   4 H      4.544102    5.057885    4.902848    ( 0.0000,  0.0000,  0.0000)
   5 H      4.544102    5.057885    3.097152    ( 0.0000,  0.0000,  0.0000)

Unit cell:
           periodic     x           y           z      points  spacing
  1. axis:    no     8.000000    0.000000    0.000000    40     0.2000
  2. axis:    no     0.000000    8.000000    0.000000    40     0.2000
  3. axis:    no     0.000000    0.000000    8.000000    40     0.2000

  Lengths:   8.000000   8.000000   8.000000
  Angles:   90.000000  90.000000  90.000000

Effective grid spacing dv^(1/3) = 0.2000

     iter     time        total  log10-change:
                         energy   eigst   dens
iter:   1 10:33:05   -28.793866        c
iter:   2 10:33:05   -28.793456        c -2.47
iter:   3 10:33:06   -28.793173c       c -2.65
iter:   4 10:33:06   -28.793167c       c -3.38
iter:   5 10:33:06   -28.793166c       c -3.90
iter:   6 10:33:07   -28.793166c       c -4.18c

Converged after 6 iterations.

Dipole moment: (0.269965, 0.128528, 0.000000) |e|*Ang

Energy contributions relative to reference atoms: (reference = -3118.441066)

Kinetic:        +22.530051
Potential:      -25.331185
External:        +0.000000
XC:             -26.426640
Entropy (-ST):   +0.000000
Local:           +0.434607
SIC:             +0.000000
--------------------------
Free energy:    -28.793166
Extrapolated:   -28.793166

 Band  Eigenvalues  Occupancy
    0    -25.05787    2.00000
    1    -16.55746    2.00000
    2    -12.19467    2.00000
    3    -10.27474    2.00000
    4    -10.01465    2.00000
    5     -7.65005    2.00000
    6     -5.86202    2.00000
    7      1.31020    0.00000
    8      2.43476    0.00000
    9      3.56710    0.00000
   10      3.77653    0.00000
   11      4.67342    0.00000

Fermi level: -2.27591

Gap: 7.172 eV
Transition (v -> c):
  (s=0, k=0, n=6, [0.00, 0.00, 0.00]) -> (s=0, k=0, n=7, [0.00, 0.00, 0.00])
No difference between direct/indirect transitions

Forces in eV/Ang:
  0 C    -0.10498    0.24893    0.00000
  1 O    -0.02385   -0.20823    0.00000
  2 H    -0.01672   -0.09907    0.00000
  3 H    -0.08656    0.13255    0.00000
  4 H     0.09555   -0.06326    0.09309
  5 H     0.09555   -0.06326   -0.09309

System changes: positions 

Initializing position-dependent things.

Density initialized from wave functions
      .-------------------.  
     /|                   |  
    / |                   |  
   /  |                   |  
  /   |                   |  
 *    |                   |  
 |    |         H         |  
 |    |     H C           |  
 |    |      O HH         |  
 |    |                   |  
 |    .-------------------.  
 |   /                   /   
 |  /                   /    
 | /                   /     
 |/                   /      
 *-------------------*       

Positions:
   0 C      4.049978    4.626938    4.000000    ( 0.0000,  0.0000,  0.0000)
   1 O      4.000048    3.201830    4.000000    ( 0.0000,  0.0000,  0.0000)
   2 H      2.997974    4.991528    4.000000    ( 0.0000,  0.0000,  0.0000)
   3 H      4.929184    2.873368    4.000000    ( 0.0000,  0.0000,  0.0000)
   4 H      4.546513    5.060700    4.904504    ( 0.0000,  0.0000,  0.0000)
   5 H      4.546513    5.060700    3.095496    ( 0.0000,  0.0000,  0.0000)

Unit cell:
           periodic     x           y           z      points  spacing
  1. axis:    no     8.000000    0.000000    0.000000    40     0.2000
  2. axis:    no     0.000000    8.000000    0.000000    40     0.2000
  3. axis:    no     0.000000    0.000000    8.000000    40     0.2000

  Lengths:   8.000000   8.000000   8.000000
  Angles:   90.000000  90.000000  90.000000

Effective grid spacing dv^(1/3) = 0.2000

     iter     time        total  log10-change:
                         energy   eigst   dens
iter:   1 10:33:07   -28.794733        c
iter:   2 10:33:08   -28.794692        c -2.95
iter:   3 10:33:08   -28.794667c       c -3.14
iter:   4 10:33:08   -28.794667c       c -3.71
iter:   5 10:33:09   -28.794667c       c -4.29c

Converged after 5 iterations.

Dipole moment: (0.269066, 0.134198, 0.000000) |e|*Ang

Energy contributions relative to reference atoms: (reference = -3118.441066)

Kinetic:        +22.542414
Potential:      -25.349758
External:        +0.000000
XC:             -26.420149
Entropy (-ST):   +0.000000
Local:           +0.432826
SIC:             +0.000000
--------------------------
Free energy:    -28.794667
Extrapolated:   -28.794667

 Band  Eigenvalues  Occupancy
    0    -25.05144    2.00000
    1    -16.55119    2.00000
    2    -12.17663    2.00000
    3    -10.27495    2.00000
    4    -10.01223    2.00000
    5     -7.67262    2.00000
    6     -5.85843    2.00000
    7      1.31418    0.00000
    8      2.43974    0.00000
    9      3.56900    0.00000
   10      3.76034    0.00000
   11      4.64430    0.00000

Fermi level: -2.27212

Gap: 7.173 eV
Transition (v -> c):
  (s=0, k=0, n=6, [0.00, 0.00, 0.00]) -> (s=0, k=0, n=7, [0.00, 0.00, 0.00])
No difference between direct/indirect transitions

Forces in eV/Ang:
  0 C    -0.05677    0.17173    0.00000
  1 O    -0.04408   -0.11627    0.00000
  2 H    -0.03808   -0.05007    0.00000
  3 H    -0.02973    0.06949    0.00000
  4 H     0.06616   -0.05412    0.05800
  5 H     0.06616   -0.05412   -0.05800

System changes: positions 

Initializing position-dependent things.

Density initialized from wave functions
      .-------------------.  
     /|                   |  
    / |                   |  
   /  |                   |  
  /   |                   |  
 *    |                   |  
 |    |         H         |  
 |    |     H C           |  
 |    |      O HH         |  
 |    |                   |  
 |    .-------------------.  
 |   /                   /   
 |  /                   /    
 | /                   /     
 |/                   /      
 *-------------------*       

Positions:
   0 C      4.051794    4.631506    4.000000    ( 0.0000,  0.0000,  0.0000)
   1 O      4.009401    3.202243    4.000000    ( 0.0000,  0.0000,  0.0000)
   2 H      2.996516    4.983771    4.000000    ( 0.0000,  0.0000,  0.0000)
   3 H      4.943077    2.887910    4.000000    ( 0.0000,  0.0000,  0.0000)
   4 H      4.549367    5.062337    4.906610    ( 0.0000,  0.0000,  0.0000)
   5 H      4.549367    5.062337    3.093390    ( 0.0000,  0.0000,  0.0000)

Unit cell:
           periodic     x           y           z      points  spacing
  1. axis:    no     8.000000    0.000000    0.000000    40     0.2000
  2. axis:    no     0.000000    8.000000    0.000000    40     0.2000
  3. axis:    no     0.000000    0.000000    8.000000    40     0.2000

  Lengths:   8.000000   8.000000   8.000000
  Angles:   90.000000  90.000000  90.000000

Effective grid spacing dv^(1/3) = 0.2000

     iter     time        total  log10-change:
                         energy   eigst   dens
iter:   1 10:33:09   -28.795763        c
iter:   2 10:33:10   -28.795728        c -2.94
iter:   3 10:33:10   -28.795708c       c -3.13
iter:   4 10:33:10   -28.795707c       c -3.69
iter:   5 10:33:11   -28.795707c       c -4.32c

Converged after 5 iterations.

Dipole moment: (0.268523, 0.140524, 0.000000) |e|*Ang

Energy contributions relative to reference atoms: (reference = -3118.441066)

Kinetic:        +22.429748
Potential:      -25.280130
External:        +0.000000
XC:             -26.376589
Entropy (-ST):   +0.000000
Local:           +0.431264
SIC:             +0.000000
--------------------------
Free energy:    -28.795707
Extrapolated:   -28.795707

 Band  Eigenvalues  Occupancy
    0    -25.02649    2.00000
    1    -16.54035    2.00000
    2    -12.14692    2.00000
    3    -10.27438    2.00000
    4    -10.00144    2.00000
    5     -7.69709    2.00000
    6     -5.85285    2.00000
    7      1.30853    0.00000
    8      2.44065    0.00000
    9      3.56296    0.00000
   10      3.74217    0.00000
   11      4.59639    0.00000

Fermi level: -2.27216

Gap: 7.161 eV
Transition (v -> c):
  (s=0, k=0, n=6, [0.00, 0.00, 0.00]) -> (s=0, k=0, n=7, [0.00, 0.00, 0.00])
No difference between direct/indirect transitions

Forces in eV/Ang:
  0 C    -0.02822    0.03652    0.00000
  1 O    -0.00283   -0.01140    0.00000
  2 H    -0.03626    0.00438    0.00000
  3 H    -0.01591    0.02170    0.00000
  4 H     0.03189   -0.04243    0.01659
  5 H     0.03189   -0.04243   -0.01659

System changes: positions 

Initializing position-dependent things.

Density initialized from wave functions
      .-------------------.  
     /|                   |  
    / |                   |  
   /  |                   |  
  /   |                   |  
 *    |                   |  
 |    |         H         |  
 |    |     H C           |  
 |    |      O HH         |  
 |    |                   |  
 |    .-------------------.  
 |   /                   /   
 |  /                   /    
 | /                   /     
 |/                   /      
 *-------------------*       

Positions:
   0 C      4.051112    4.631840    4.000000    ( 0.0000,  0.0000,  0.0000)
   1 O      4.007179    3.201746    4.000000    ( 0.0000,  0.0000,  0.0000)
   2 H      2.995895    4.984244    4.000000    ( 0.0000,  0.0000,  0.0000)
   3 H      4.940405    2.887186    4.000000    ( 0.0000,  0.0000,  0.0000)
   4 H      4.550020    5.060984    4.907193    ( 0.0000,  0.0000,  0.0000)
   5 H      4.550020    5.060984    3.092807    ( 0.0000,  0.0000,  0.0000)

Unit cell:
           periodic     x           y           z      points  spacing
  1. axis:    no     8.000000    0.000000    0.000000    40     0.2000
  2. axis:    no     0.000000    8.000000    0.000000    40     0.2000
  3. axis:    no     0.000000    0.000000    8.000000    40     0.2000

  Lengths:   8.000000   8.000000   8.000000
  Angles:   90.000000  90.000000  90.000000

Effective grid spacing dv^(1/3) = 0.2000

     iter     time        total  log10-change:
                         energy   eigst   dens
iter:   1 10:33:11   -28.795943        c
iter:   2 10:33:12   -28.795940        c -3.64
iter:   3 10:33:12   -28.795939c       c -3.84
iter:   4 10:33:12   -28.795939c       c -4.42c

Converged after 4 iterations.

Dipole moment: (0.268595, 0.140920, 0.000000) |e|*Ang

Energy contributions relative to reference atoms: (reference = -3118.441066)

Kinetic:        +22.391820
Potential:      -25.254908
External:        +0.000000
XC:             -26.364798
Entropy (-ST):   +0.000000
Local:           +0.431947
SIC:             +0.000000
--------------------------
Free energy:    -28.795939
Extrapolated:   -28.795939

 Band  Eigenvalues  Occupancy
    0    -25.02072    2.00000
    1    -16.53870    2.00000
    2    -12.14129    2.00000
    3    -10.27277    2.00000
    4     -9.99957    2.00000
    5     -7.69953    2.00000
    6     -5.85150    2.00000
    7      1.30904    0.00000
    8      2.43903    0.00000
    9      3.56127    0.00000
   10      3.73689    0.00000
   11      4.58634    0.00000

Fermi level: -2.27123

Gap: 7.161 eV
Transition (v -> c):
  (s=0, k=0, n=6, [0.00, 0.00, 0.00]) -> (s=0, k=0, n=7, [0.00, 0.00, 0.00])
No difference between direct/indirect transitions
