 Entering Gaussian System
 *********************************************
 Gaussian 98:
 frequency output generated by the xtb code
 *********************************************
                         Standard orientation:
 --------------------------------------------------------------------
  Center     Atomic     Atomic              Coordinates (Angstroms)
  Number     Number      Type              X           Y           Z
 --------------------------------------------------------------------
    1          8             0       -1.740037   -2.176576    0.089091
    2          6             0        0.013269   -0.485407    0.033382
    3          6             0        0.319400    0.903289    0.001161
    4          6             0       -1.355672   -0.872887    0.052999
    5          6             0       -0.724993    1.848907   -0.013140
    6          6             0        1.081076   -1.409241    0.044003
    7          6             0        1.672765    1.301628   -0.016239
    8          6             0       -2.347003    0.080003    0.036906
    9          6             0       -2.029264    1.440471    0.003461
   10          6             0        2.381539   -0.987772    0.025682
   11          6             0        2.681760    0.381303   -0.003921
   12          1             0       -0.475153    2.899351   -0.037588
   13          1             0        0.884614   -2.474556    0.065835
   14          1             0        1.895848    2.358834   -0.039764
   15          1             0       -3.374597   -0.246691    0.051733
   16          1             0       -2.829530    2.165335   -0.008360
   17          1             0        3.184672   -1.709993    0.033753
   18          1             0        3.713929    0.698809   -0.017148
   19          1             0       -0.968515   -2.753915    0.100544
 --------------------------------------------------------------------
     1 basis functions        1 primitive gaussians
     1 alpha electrons        1 beta electrons

 Harmonic frequencies (cm**-1), IR intensities (km*mol⁻¹),
 Raman scattering activities (A**4/amu), Raman depolarization ratios,
 reduced masses (AMU), force constants (mDyne/A) and normal coordinates:
                      1                      2                      3
                        a                      a                      a 
 Frequencies --   109.4210               157.0972               239.3908
 Red. masses --     3.7525                 3.8932                 3.7687
 Frc consts  --     0.0000                 0.0000                 0.0000
 IR Inten    --     0.4713                 0.1413                 0.4582
 Raman Activ --     0.0000                 0.0000                 0.0000
 Depolar     --     0.0000                 0.0000                 0.0000
 Atom AN      X      Y      Z        X      Y      Z        X      Y      Z
   1   8    -0.01  -0.01  -0.48     0.00   0.00   0.06    -0.01  -0.01  -0.33
   2   6     0.00   0.00   0.05    -0.00  -0.01  -0.34     0.00   0.01   0.29
   3   6    -0.00  -0.00  -0.13    -0.00  -0.01  -0.33     0.00   0.00   0.15
   4   6    -0.00  -0.00  -0.05    -0.00  -0.00  -0.04     0.00   0.01   0.24
   5   6     0.00  -0.00  -0.00    -0.00  -0.01  -0.30    -0.00  -0.01  -0.42
   6   6     0.00   0.01   0.38    -0.00  -0.01  -0.31     0.00   0.00   0.10
   7   6    -0.00  -0.01  -0.36    -0.00  -0.00  -0.01     0.00   0.01   0.28
   8   6     0.00   0.00   0.19     0.00   0.01   0.39     0.00   0.01   0.38
   9   6     0.00   0.01   0.29     0.00   0.00   0.17    -0.00  -0.00  -0.19
  10   6     0.00   0.01   0.33     0.00   0.00   0.17    -0.00  -0.00  -0.27
  11   6    -0.00  -0.00  -0.17     0.00   0.01   0.42     0.00   0.00  -0.03
  12   1     0.00  -0.00  -0.03    -0.00  -0.00  -0.13    -0.00  -0.01  -0.28
  13   1     0.00   0.00   0.23    -0.00  -0.00  -0.15     0.00   0.00   0.05
  14   1    -0.00  -0.00  -0.19     0.00   0.00   0.02     0.00   0.00   0.13
  15   1     0.00   0.00   0.07     0.00   0.01   0.24     0.00   0.00   0.14
  16   1     0.00   0.00   0.14     0.00   0.00   0.12    -0.00  -0.00  -0.15
  17   1     0.00   0.00   0.19     0.00   0.00   0.11    -0.00  -0.00  -0.18
  18   1    -0.00  -0.00  -0.10     0.00   0.01   0.25    -0.00  -0.00  -0.03
  19   1    -0.00  -0.01  -0.23     0.00  -0.00  -0.07    -0.00  -0.00  -0.16
                      4                      5                      6
                        a                      a                      a 
 Frequencies --   296.8038               344.9621               384.9562
 Red. masses --     5.1833                 1.1921                 2.8428
 Frc consts  --     0.0000                 0.0000                 0.0000
 IR Inten    --     1.4263               141.4305                11.4455
 Raman Activ --     0.0000                 0.0000                 0.0000
 Depolar     --     0.0000                 0.0000                 0.0000
 Atom AN      X      Y      Z        X      Y      Z        X      Y      Z
   1   8    -0.67   0.06   0.01     0.01   0.01   0.34    -0.00  -0.00  -0.09
   2   6     0.05  -0.25   0.00    -0.00   0.00  -0.11     0.00   0.01   0.29
   3   6     0.00  -0.22   0.00    -0.00   0.00  -0.01     0.00   0.01   0.26
   4   6    -0.03  -0.09   0.00     0.00   0.00  -0.06     0.00   0.01   0.30
   5   6     0.11  -0.13   0.00    -0.00   0.00   0.04     0.00   0.00   0.15
   6   6     0.27  -0.03  -0.00    -0.00   0.00   0.06    -0.00  -0.01  -0.39
   7   6    -0.08   0.05   0.00     0.00   0.00   0.12    -0.00  -0.01  -0.41
   8   6     0.07   0.04  -0.00    -0.00  -0.00  -0.08     0.00   0.00   0.05
   9   6     0.08   0.02  -0.00    -0.00  -0.00  -0.05     0.00  -0.01  -0.21
  10   6     0.22   0.23  -0.01    -0.00  -0.00  -0.03     0.00   0.00   0.18
  11   6     0.08   0.26  -0.01    -0.00  -0.01  -0.06     0.00   0.00   0.17
  12   1     0.07  -0.05   0.00    -0.00   0.00   0.04    -0.00   0.00   0.00
  13   1     0.12  -0.02   0.00    -0.00   0.00   0.12    -0.00  -0.01  -0.30
  14   1    -0.10   0.03   0.00     0.00   0.00   0.08    -0.00  -0.01  -0.31
  15   1     0.02   0.02  -0.00    -0.00  -0.00  -0.01    -0.00  -0.00  -0.07
  16   1     0.04   0.02  -0.00    -0.00  -0.00  -0.02    -0.00  -0.00  -0.20
  17   1     0.09   0.10  -0.00    -0.00  -0.00   0.01     0.00   0.00   0.05
  18   1     0.01   0.12  -0.00    -0.00  -0.00  -0.02     0.00   0.00   0.05
  19   1    -0.24  -0.08  -0.01    -0.00  -0.02  -0.90    -0.00  -0.01  -0.24
                      7                      8                      9
                        a                      a                      a 
 Frequencies --   436.1859               448.9704               455.7767
 Red. masses --     3.5077                 5.3110                 5.9703
 Frc consts  --     0.0000                 0.0000                 0.0000
 IR Inten    --     0.8127                 5.1446                 0.1857
 Raman Activ --     0.0000                 0.0000                 0.0000
 Depolar     --     0.0000                 0.0000                 0.0000
 Atom AN      X      Y      Z        X      Y      Z        X      Y      Z
   1   8    -0.01   0.00   0.01     0.22  -0.38   0.01     0.30   0.25  -0.01
   2   6     0.00   0.01   0.39    -0.22  -0.13   0.01     0.16  -0.25   0.01
   3   6     0.00  -0.00  -0.29    -0.00  -0.19   0.00    -0.22  -0.22   0.01
   4   6     0.00   0.00   0.14    -0.21  -0.17   0.01     0.11   0.20  -0.00
   5   6    -0.00  -0.00  -0.16     0.34   0.07  -0.01    -0.08  -0.04   0.00
   6   6    -0.00   0.01   0.11    -0.17  -0.02   0.00     0.19  -0.31   0.01
   7   6     0.00  -0.00  -0.16    -0.14   0.08  -0.00    -0.34  -0.11   0.00
   8   6    -0.00  -0.01  -0.34     0.07   0.16  -0.01     0.08   0.22  -0.01
   9   6     0.00   0.00   0.34     0.36   0.16  -0.00    -0.15   0.27  -0.00
  10   6    -0.00  -0.01  -0.32    -0.24   0.21  -0.01     0.12  -0.09  -0.00
  11   6     0.01   0.01   0.34    -0.12   0.18  -0.00    -0.26   0.00   0.01
  12   1    -0.00  -0.00  -0.04     0.17   0.00  -0.00     0.08  -0.04  -0.00
  13   1    -0.00   0.00  -0.00     0.03  -0.02   0.00     0.08  -0.10   0.00
  14   1     0.00  -0.00  -0.05    -0.11   0.04  -0.00    -0.12  -0.03  -0.00
  15   1    -0.00  -0.01  -0.23    -0.02   0.17  -0.01     0.04   0.01  -0.00
  16   1     0.00   0.00   0.22     0.12   0.07  -0.00    -0.04   0.08  -0.00
  17   1    -0.00  -0.01  -0.23    -0.06   0.07  -0.00     0.09   0.04  -0.00
  18   1     0.00   0.00   0.23    -0.03   0.03   0.00    -0.10   0.07   0.00
  19   1    -0.00  -0.00  -0.09     0.13   0.01  -0.00     0.11   0.11  -0.00
                     10                     11                     12
                        a                      a                      a 
 Frequencies --   499.4458               533.8608               549.0356
 Red. masses --     5.7290                 3.7450                 7.2550
 Frc consts  --     0.0000                 0.0000                 0.0000
 IR Inten    --     1.6407                 7.0673                 2.6810
 Raman Activ --     0.0000                 0.0000                 0.0000
 Depolar     --     0.0000                 0.0000                 0.0000
 Atom AN      X      Y      Z        X      Y      Z        X      Y      Z
   1   8    -0.19  -0.13   0.00     0.00  -0.00  -0.15    -0.00   0.31  -0.01
   2   6     0.14   0.08  -0.01    -0.00  -0.00  -0.21     0.14  -0.03  -0.00
   3   6    -0.15   0.22  -0.01    -0.00  -0.01  -0.40     0.24  -0.04  -0.00
   4   6     0.31  -0.22   0.00     0.00   0.01   0.39     0.18   0.13  -0.00
   5   6    -0.02   0.38  -0.01     0.00   0.01   0.41     0.11  -0.31   0.01
   6   6    -0.05  -0.08   0.00     0.00   0.00   0.17    -0.20  -0.32   0.01
   7   6    -0.18   0.08   0.00     0.00  -0.00  -0.10     0.09   0.40  -0.01
   8   6     0.51  -0.07  -0.00    -0.00   0.00   0.15     0.01  -0.12   0.00
   9   6     0.12   0.03  -0.00    -0.00  -0.01  -0.34     0.09  -0.23   0.00
  10   6    -0.08  -0.13   0.00    -0.00  -0.00  -0.22    -0.38   0.09   0.00
  11   6    -0.32  -0.08   0.00     0.00   0.00   0.14    -0.24   0.11  -0.00
  12   1    -0.01   0.11  -0.00     0.00   0.00   0.24     0.00  -0.08   0.00
  13   1    -0.09  -0.01   0.00     0.00   0.00   0.23    -0.04  -0.09   0.00
  14   1     0.01   0.01   0.00     0.00   0.00   0.12     0.01   0.12  -0.00
  15   1     0.15  -0.03  -0.00    -0.00   0.00   0.02     0.02  -0.09   0.00
  16   1    -0.05  -0.09   0.00    -0.00  -0.00  -0.18     0.06  -0.03   0.00
  17   1     0.01  -0.00   0.00    -0.00  -0.00  -0.01    -0.06   0.08  -0.00
  18   1    -0.09  -0.02   0.00     0.00   0.00   0.21    -0.03  -0.08   0.00
  19   1    -0.13  -0.15   0.01     0.00   0.00   0.02    -0.05   0.01  -0.00
                     13                     14                     15
                        a                      a                      a 
 Frequencies --   601.3086               716.6744               725.5897
 Red. masses --     4.6797                 4.6464                 6.2418
 Frc consts  --     0.0000                 0.0000                 0.0000
 IR Inten    --     4.6070                 1.9467                16.2091
 Raman Activ --     0.0000                 0.0000                 0.0000
 Depolar     --     0.0000                 0.0000                 0.0000
 Atom AN      X      Y      Z        X      Y      Z        X      Y      Z
   1   8    -0.00  -0.00  -0.11    -0.00  -0.00  -0.02    -0.06  -0.42   0.01
   2   6    -0.00  -0.00  -0.06    -0.00  -0.01  -0.53     0.12  -0.11   0.00
   3   6    -0.00  -0.01  -0.21     0.00   0.01   0.54     0.16   0.15  -0.01
   4   6     0.00   0.02   0.60     0.00   0.01   0.25    -0.12  -0.07   0.00
   5   6    -0.00  -0.00  -0.13    -0.00  -0.00  -0.13    -0.16   0.06   0.00
   6   6    -0.00  -0.01  -0.28     0.00   0.00   0.11     0.09  -0.37   0.01
   7   6     0.00   0.01   0.27    -0.00  -0.00  -0.22     0.29   0.37  -0.01
   8   6    -0.00  -0.01  -0.25    -0.00  -0.00  -0.15    -0.09   0.18  -0.00
   9   6     0.00   0.00   0.19     0.00   0.01   0.22    -0.31   0.32  -0.01
  10   6     0.00   0.01   0.28    -0.00  -0.00  -0.22     0.02  -0.07   0.00
  11   6    -0.00  -0.01  -0.32     0.00   0.00   0.17     0.02   0.00  -0.00
  12   1     0.00  -0.00  -0.03    -0.00  -0.00  -0.22    -0.04   0.02   0.00
  13   1     0.00  -0.00   0.00     0.00   0.00   0.22     0.06  -0.11   0.00
  14   1     0.00   0.00   0.20     0.00  -0.00  -0.03     0.15   0.09  -0.00
  15   1    -0.00  -0.01  -0.22    -0.00  -0.00  -0.11    -0.03   0.06  -0.00
  16   1     0.00   0.00   0.05    -0.00  -0.00  -0.12    -0.08   0.10  -0.00
  17   1     0.00   0.00   0.22     0.00   0.00   0.11     0.07   0.04  -0.00
  18   1    -0.00  -0.00  -0.07     0.00   0.00   0.10     0.04  -0.10   0.00
  19   1    -0.00  -0.00  -0.01     0.00   0.00   0.03     0.03  -0.04   0.00
                     16                     17                     18
                        a                      a                      a 
 Frequencies --   755.6561               773.4124               811.8746
 Red. masses --     1.4328                 5.5880                 1.2995
 Frc consts  --     0.0000                 0.0000                 0.0000
 IR Inten    --     1.5702                 0.0538                46.9116
 Raman Activ --     0.0000                 0.0000                 0.0000
 Depolar     --     0.0000                 0.0000                 0.0000
 Atom AN      X      Y      Z        X      Y      Z        X      Y      Z
   1   8     0.00   0.00   0.06     0.03   0.01  -0.00    -0.00   0.00   0.03
   2   6     0.00   0.01   0.30    -0.04  -0.06   0.00    -0.00  -0.00  -0.13
   3   6     0.00   0.00  -0.00    -0.03  -0.15   0.00    -0.00  -0.00  -0.22
   4   6    -0.00  -0.01  -0.27     0.21  -0.06  -0.00    -0.00  -0.00  -0.08
   5   6     0.00   0.00   0.13    -0.17  -0.15   0.00     0.00   0.01   0.25
   6   6    -0.00  -0.01  -0.27    -0.22   0.03   0.00     0.00   0.00   0.15
   7   6    -0.00  -0.00  -0.14     0.10  -0.21   0.00     0.00   0.00   0.09
   8   6    -0.00   0.00   0.12     0.40   0.09  -0.00     0.00   0.00   0.16
   9   6     0.00   0.00   0.06    -0.31   0.24  -0.00     0.00   0.00   0.20
  10   6     0.00  -0.00  -0.09    -0.34   0.26  -0.00     0.00   0.00   0.10
  11   6    -0.00  -0.00  -0.15     0.39   0.09  -0.00     0.00   0.00   0.04
  12   1    -0.00  -0.01  -0.29     0.03  -0.06   0.00    -0.00  -0.01  -0.48
  13   1     0.00   0.01   0.36    -0.01   0.00   0.00    -0.00  -0.00  -0.23
  14   1     0.00   0.01   0.32    -0.05  -0.04   0.00    -0.00  -0.00  -0.07
  15   1    -0.00  -0.00  -0.17     0.15  -0.09   0.00    -0.00  -0.01  -0.43
  16   1    -0.00  -0.00  -0.18    -0.13   0.02  -0.00    -0.00  -0.01  -0.44
  17   1     0.00   0.01   0.38    -0.17  -0.01   0.00    -0.00  -0.00  -0.25
  18   1     0.00   0.01   0.39     0.13  -0.04   0.00    -0.00  -0.00  -0.18
  19   1     0.00   0.00   0.04    -0.03  -0.05   0.00    -0.00   0.00  -0.00
                     19                     20                     21
                        a                      a                      a 
 Frequencies --   858.7535               862.5991               879.8861
 Red. masses --     4.8880                 1.2930                 1.3316
 Frc consts  --     0.0000                 0.0000                 0.0000
 IR Inten    --     1.3171                 1.0917                 1.2246
 Raman Activ --     0.0000                 0.0000                 0.0000
 Depolar     --     0.0000                 0.0000                 0.0000
 Atom AN      X      Y      Z        X      Y      Z        X      Y      Z
   1   8     0.03   0.17  -0.00     0.00   0.00   0.01     0.00   0.00   0.03
   2   6    -0.02  -0.18   0.00     0.00  -0.00   0.05    -0.00  -0.00  -0.05
   3   6    -0.12   0.09  -0.00    -0.00  -0.00  -0.08     0.00   0.00   0.09
   4   6    -0.07   0.02   0.00    -0.00  -0.00  -0.04    -0.00  -0.00  -0.08
   5   6    -0.03   0.52  -0.01    -0.00   0.00  -0.02    -0.00  -0.01  -0.31
   6   6    -0.00  -0.46   0.01    -0.00  -0.01  -0.31     0.00   0.00   0.10
   7   6     0.04  -0.16   0.00     0.00   0.00   0.25    -0.00  -0.00  -0.04
   8   6    -0.14  -0.14   0.00    -0.00   0.00   0.10     0.00   0.01   0.37
   9   6     0.13  -0.20   0.00     0.00  -0.00  -0.01    -0.00  -0.00   0.00
  10   6    -0.14   0.19  -0.00    -0.00  -0.00  -0.10    -0.00  -0.00  -0.05
  11   6     0.32   0.11  -0.01     0.00   0.00   0.23    -0.00  -0.00  -0.06
  12   1    -0.11   0.17  -0.00    -0.00   0.00   0.07     0.00   0.01   0.53
  13   1     0.14  -0.15  -0.00     0.01   0.01   0.57    -0.00  -0.00  -0.16
  14   1    -0.02  -0.03   0.00    -0.00  -0.01  -0.51     0.00   0.00   0.06
  15   1    -0.05  -0.00   0.00    -0.00  -0.00  -0.19    -0.00  -0.01  -0.64
  16   1    -0.05  -0.14   0.00    -0.00  -0.00  -0.00    -0.00  -0.00  -0.03
  17   1    -0.01   0.08  -0.00     0.00   0.00   0.07     0.00   0.00   0.10
  18   1     0.10  -0.00   0.00    -0.00  -0.01  -0.35     0.00   0.00   0.10
  19   1     0.03   0.07  -0.00     0.00   0.00   0.04    -0.00  -0.00  -0.01
                     22                     23                     24
                        a                      a                      a 
 Frequencies --   908.9472               920.1288               927.0078
 Red. masses --     1.3318                 1.2368                 1.2506
 Frc consts  --     0.0000                 0.0000                 0.0000
 IR Inten    --     0.1123                 0.2482                 0.0577
 Raman Activ --     0.0000                 0.0000                 0.0000
 Depolar     --     0.0000                 0.0000                 0.0000
 Atom AN      X      Y      Z        X      Y      Z        X      Y      Z
   1   8    -0.00  -0.00  -0.00    -0.00   0.00   0.01     0.00   0.00   0.00
   2   6     0.00   0.00   0.02    -0.00  -0.00  -0.05    -0.00  -0.00  -0.11
   3   6    -0.00  -0.00  -0.09     0.00   0.00   0.04     0.00   0.00   0.08
   4   6     0.00   0.00   0.01     0.00   0.00   0.04     0.00   0.00   0.03
   5   6     0.00   0.00   0.06     0.00   0.00   0.17     0.00   0.00   0.07
   6   6     0.00   0.00   0.22     0.00   0.00   0.04    -0.00  -0.00  -0.01
   7   6     0.00   0.01   0.27    -0.00  -0.00  -0.08     0.00   0.00   0.18
   8   6    -0.00  -0.00  -0.05     0.00   0.00   0.13     0.00   0.00   0.06
   9   6     0.00   0.00   0.03    -0.00  -0.01  -0.34    -0.00  -0.00  -0.15
  10   6    -0.00  -0.01  -0.35    -0.00  -0.00  -0.09     0.00   0.00   0.17
  11   6    -0.00  -0.00  -0.09     0.00   0.00   0.13    -0.00  -0.01  -0.31
  12   1    -0.00  -0.00  -0.08    -0.00  -0.01  -0.36    -0.00  -0.00  -0.16
  13   1    -0.00  -0.01  -0.36    -0.00  -0.00  -0.10     0.00   0.00   0.11
  14   1    -0.00  -0.01  -0.43     0.00   0.00   0.17    -0.00  -0.01  -0.40
  15   1     0.00   0.00   0.09    -0.00  -0.01  -0.29    -0.00  -0.00  -0.14
  16   1    -0.00  -0.00  -0.05     0.00   0.02   0.67     0.00   0.01   0.29
  17   1     0.00   0.01   0.62     0.00   0.00   0.18    -0.00  -0.01  -0.35
  18   1     0.00   0.00   0.15    -0.00  -0.01  -0.26     0.00   0.01   0.60
  19   1     0.00  -0.00  -0.02    -0.00  -0.00  -0.01    -0.00  -0.00   0.00
                     25                     26                     27
                        a                      a                      a 
 Frequencies --  1038.7784              1087.0692              1109.4938
 Red. masses --     2.7474                 1.9471                 1.8075
 Frc consts  --     0.0000                 0.0000                 0.0000
 IR Inten    --     0.5309                 8.0550                 7.3481
 Raman Activ --     0.0000                 0.0000                 0.0000
 Depolar     --     0.0000                 0.0000                 0.0000
 Atom AN      X      Y      Z        X      Y      Z        X      Y      Z
   1   8     0.00  -0.26   0.01     0.08   0.02  -0.00     0.05   0.10  -0.00
   2   6     0.35   0.22  -0.01    -0.06   0.08  -0.00    -0.11  -0.18   0.00
   3   6     0.04   0.09  -0.00    -0.10  -0.04   0.00    -0.02  -0.20   0.00
   4   6     0.24   0.17  -0.01     0.04  -0.01  -0.00     0.03  -0.05   0.00
   5   6     0.10   0.01  -0.00     0.00  -0.02   0.00     0.19   0.31  -0.01
   6   6    -0.03  -0.11   0.00    -0.15  -0.18   0.00     0.02   0.16  -0.00
   7   6    -0.15  -0.31   0.01    -0.06   0.22  -0.00     0.07   0.21  -0.00
   8   6    -0.39  -0.07   0.00    -0.01   0.03  -0.00    -0.20  -0.26   0.01
   9   6     0.00   0.13  -0.00     0.02  -0.02   0.00    -0.13   0.20  -0.00
  10   6    -0.14   0.16  -0.00     0.15  -0.41   0.01     0.03  -0.07   0.00
  11   6     0.02   0.04  -0.00     0.33   0.30  -0.01    -0.03  -0.02   0.00
  12   1     0.10  -0.01  -0.00    -0.01  -0.00   0.00     0.40   0.01  -0.00
  13   1    -0.11  -0.00   0.00    -0.36   0.01   0.00     0.00   0.04  -0.00
  14   1    -0.06  -0.08   0.00    -0.38   0.14  -0.00    -0.02   0.07  -0.00
  15   1    -0.07  -0.13   0.00    -0.03   0.09  -0.00     0.09  -0.54   0.01
  16   1     0.18   0.24  -0.01     0.01   0.00  -0.00    -0.08   0.02   0.00
  17   1     0.00   0.09  -0.00    -0.08  -0.26   0.01    -0.07  -0.10   0.00
  18   1    -0.03   0.10  -0.00     0.05   0.25  -0.01     0.04  -0.15   0.00
  19   1    -0.20  -0.32   0.01    -0.11  -0.16   0.00    -0.06  -0.06   0.00
                     28                     29                     30
                        a                      a                      a 
 Frequencies --  1147.9662              1170.4466              1184.8819
 Red. masses --     1.2783                 1.2111                 1.2048
 Frc consts  --     0.0000                 0.0000                 0.0000
 IR Inten    --   186.6844                12.6301                34.7645
 Raman Activ --     0.0000                 0.0000                 0.0000
 Depolar     --     0.0000                 0.0000                 0.0000
 Atom AN      X      Y      Z        X      Y      Z        X      Y      Z
   1   8    -0.25  -0.19   0.01     0.05   0.09  -0.00    -0.11  -0.10   0.00
   2   6     0.09   0.13  -0.00    -0.20   0.09  -0.00     0.25   0.21  -0.01
   3   6     0.12   0.09  -0.00     0.01   0.09  -0.00     0.07  -0.10   0.00
   4   6    -0.07   0.12  -0.00    -0.05  -0.09   0.00    -0.06   0.10  -0.00
   5   6     0.03  -0.03   0.00     0.09  -0.05   0.00     0.01   0.04  -0.00
   6   6    -0.10  -0.10   0.00    -0.11  -0.16   0.00    -0.02  -0.01   0.00
   7   6    -0.08  -0.07   0.00     0.10  -0.11   0.00    -0.04  -0.06   0.00
   8   6     0.09  -0.07   0.00     0.04  -0.02   0.00    -0.02  -0.06   0.00
   9   6     0.04   0.04  -0.00    -0.10   0.00   0.00    -0.05  -0.02   0.00
  10   6     0.02  -0.07   0.00     0.05  -0.03   0.00    -0.00   0.03  -0.00
  11   6     0.05   0.06  -0.00    -0.04   0.13  -0.00     0.02  -0.02   0.00
  12   1    -0.07   0.01   0.00     0.35  -0.09  -0.00     0.41  -0.08  -0.00
  13   1     0.01  -0.04   0.00    -0.08  -0.04   0.00    -0.24   0.04   0.00
  14   1    -0.10  -0.00   0.00     0.48  -0.13  -0.00    -0.25   0.04   0.00
  15   1     0.16  -0.44   0.01     0.01  -0.00   0.00    -0.08   0.22  -0.00
  16   1     0.11   0.11  -0.00    -0.16  -0.15   0.00    -0.37  -0.39   0.01
  17   1    -0.04  -0.07   0.00     0.13   0.12  -0.00     0.17   0.20  -0.01
  18   1    -0.06   0.27  -0.00    -0.17   0.56  -0.01     0.07  -0.22   0.00
  19   1     0.38   0.53  -0.02    -0.05  -0.06   0.00     0.14   0.20  -0.01
                     31                     32                     33
                        a                      a                      a 
 Frequencies --  1193.6070              1226.9578              1255.3763
 Red. masses --     1.2091                 1.6948                 1.7533
 Frc consts  --     0.0000                 0.0000                 0.0000
 IR Inten    --    17.1993                 1.8649                 5.0273
 Raman Activ --     0.0000                 0.0000                 0.0000
 Depolar     --     0.0000                 0.0000                 0.0000
 Atom AN      X      Y      Z        X      Y      Z        X      Y      Z
   1   8    -0.08  -0.10   0.00     0.07  -0.02   0.00     0.00  -0.16   0.00
   2   6     0.28  -0.09  -0.00     0.07  -0.17   0.00    -0.34   0.26  -0.00
   3   6    -0.03  -0.00   0.00     0.49  -0.19   0.00    -0.05   0.15  -0.00
   4   6     0.09   0.11  -0.00    -0.10   0.11  -0.00     0.10   0.24  -0.01
   5   6    -0.01   0.03  -0.00     0.05   0.14  -0.00     0.16  -0.11   0.00
   6   6     0.09   0.10  -0.00    -0.10   0.11  -0.00     0.11  -0.09   0.00
   7   6    -0.07   0.07  -0.00     0.01  -0.07   0.00     0.06  -0.06   0.00
   8   6    -0.10   0.01   0.00    -0.02   0.04  -0.00     0.01   0.24  -0.01
   9   6    -0.00  -0.06   0.00    -0.03   0.12  -0.00    -0.02  -0.13   0.00
  10   6    -0.12   0.02   0.00     0.03   0.07  -0.00    -0.05  -0.14   0.00
  11   6    -0.01   0.01  -0.00    -0.14  -0.12   0.00    -0.04   0.02  -0.00
  12   1     0.19  -0.04  -0.00    -0.41   0.14  -0.00     0.06  -0.04   0.00
  13   1     0.27  -0.01  -0.00    -0.05   0.04  -0.00     0.53  -0.12  -0.00
  14   1     0.15  -0.02  -0.00    -0.18   0.01   0.00    -0.28   0.05   0.00
  15   1    -0.10   0.24  -0.00     0.03  -0.09   0.00     0.09  -0.19   0.00
  16   1    -0.13  -0.16   0.00    -0.29  -0.28   0.01    -0.16  -0.21   0.01
  17   1    -0.51  -0.52   0.01    -0.01   0.00  -0.00     0.03   0.01  -0.00
  18   1    -0.06   0.18  -0.00    -0.14   0.31  -0.01     0.01  -0.06   0.00
  19   1     0.05   0.07  -0.00    -0.11  -0.17   0.00    -0.10  -0.17   0.01
                     34                     35                     36
                        a                      a                      a 
 Frequencies --  1264.8776              1354.0935              1375.2441
 Red. masses --     2.0050                 2.9980                 3.0710
 Frc consts  --     0.0000                 0.0000                 0.0000
 IR Inten    --    86.6644                37.8009                39.5050
 Raman Activ --     0.0000                 0.0000                 0.0000
 Depolar     --     0.0000                 0.0000                 0.0000
 Atom AN      X      Y      Z        X      Y      Z        X      Y      Z
   1   8    -0.03  -0.26   0.01    -0.11  -0.08   0.00     0.00   0.14  -0.00
   2   6    -0.01  -0.16   0.00    -0.10  -0.10   0.00    -0.05   0.26  -0.01
   3   6    -0.28  -0.15   0.01    -0.12  -0.23   0.01     0.03   0.02  -0.00
   4   6     0.07   0.41  -0.01     0.44   0.01  -0.00    -0.02  -0.37   0.01
   5   6     0.05  -0.02   0.00     0.15   0.18  -0.00     0.33  -0.09  -0.00
   6   6     0.06   0.04  -0.00     0.11   0.18  -0.00     0.36  -0.15   0.00
   7   6     0.02   0.06  -0.00     0.37  -0.03  -0.00     0.04  -0.21   0.00
   8   6    -0.02   0.30  -0.01    -0.12   0.00   0.00    -0.10   0.03  -0.00
   9   6     0.13  -0.18   0.00    -0.23  -0.11   0.00    -0.12   0.15  -0.00
  10   6    -0.00   0.00  -0.00    -0.25  -0.19   0.01    -0.08   0.01   0.00
  11   6     0.03   0.14  -0.00    -0.10   0.06  -0.00    -0.18   0.32  -0.01
  12   1    -0.16   0.03   0.00    -0.09   0.08  -0.00    -0.25   0.06   0.00
  13   1    -0.37   0.09   0.00    -0.00   0.06  -0.00    -0.20   0.01   0.00
  14   1     0.39  -0.06  -0.00    -0.13   0.04  -0.00     0.05  -0.07   0.00
  15   1     0.10  -0.23   0.00    -0.11   0.23  -0.00    -0.02  -0.05   0.00
  16   1    -0.09  -0.19   0.00     0.07   0.13  -0.00    -0.16  -0.09   0.00
  17   1    -0.00   0.00   0.00     0.13   0.17  -0.00    -0.19  -0.18   0.01
  18   1     0.06  -0.14   0.00    -0.09   0.22  -0.00     0.03  -0.20   0.00
  19   1     0.01  -0.03   0.00     0.13   0.19  -0.01     0.05   0.09  -0.00
                     37                     38                     39
                        a                      a                      a 
 Frequencies --  1397.6608              1428.0960              1455.3992
 Red. masses --     4.3481                 3.0730                 3.8648
 Frc consts  --     0.0000                 0.0000                 0.0000
 IR Inten    --    11.8935                17.9098                61.4242
 Raman Activ --     0.0000                 0.0000                 0.0000
 Depolar     --     0.0000                 0.0000                 0.0000
 Atom AN      X      Y      Z        X      Y      Z        X      Y      Z
   1   8    -0.01  -0.02   0.00     0.07   0.03  -0.00     0.03   0.11  -0.00
   2   6     0.08   0.46  -0.01     0.10   0.10  -0.00     0.37  -0.07  -0.00
   3   6    -0.09  -0.56   0.01    -0.10  -0.08   0.00    -0.39   0.13  -0.00
   4   6    -0.13   0.11  -0.00    -0.36   0.00   0.00    -0.08  -0.31   0.01
   5   6    -0.19   0.07  -0.00    -0.28   0.07   0.00     0.12  -0.21   0.00
   6   6    -0.01  -0.03   0.00     0.38  -0.04  -0.00    -0.04   0.16  -0.00
   7   6     0.05   0.07  -0.00     0.40  -0.07  -0.00     0.05   0.13  -0.00
   8   6     0.07  -0.27   0.01     0.13   0.15  -0.00    -0.19   0.14  -0.00
   9   6     0.18   0.21  -0.01     0.09  -0.18   0.00     0.21   0.19  -0.01
  10   6    -0.07  -0.18   0.00    -0.20   0.12  -0.00    -0.24  -0.13   0.00
  11   6     0.01   0.15  -0.00    -0.15  -0.11   0.00     0.19  -0.17   0.00
  12   1    -0.16   0.04   0.00     0.19  -0.05   0.00    -0.14  -0.02   0.00
  13   1     0.26  -0.05  -0.00    -0.20   0.05   0.00     0.13   0.02  -0.00
  14   1     0.22  -0.03  -0.00    -0.24   0.05   0.00    -0.04   0.05  -0.00
  15   1    -0.01   0.03  -0.00     0.10  -0.15   0.00     0.00  -0.16   0.00
  16   1    -0.00   0.00  -0.00     0.13   0.06  -0.00    -0.15  -0.18   0.00
  17   1     0.06   0.04  -0.00    -0.13  -0.04   0.00     0.12   0.17  -0.00
  18   1     0.02  -0.00  -0.00    -0.11   0.18  -0.00    -0.01   0.17  -0.00
  19   1    -0.05  -0.06   0.00    -0.06  -0.10   0.00     0.00   0.01  -0.00
                     40                     41                     42
                        a                      a                      a 
 Frequencies --  1516.6281              1570.4823              1604.5708
 Red. masses --     5.2692                 9.2276                 7.3955
 Frc consts  --     0.0000                 0.0000                 0.0000
 IR Inten    --    57.5085                44.4482                 9.8020
 Raman Activ --     0.0000                 0.0000                 0.0000
 Depolar     --     0.0000                 0.0000                 0.0000
 Atom AN      X      Y      Z        X      Y      Z        X      Y      Z
   1   8    -0.04  -0.05   0.00     0.00  -0.03   0.00     0.04  -0.03   0.00
   2   6    -0.29   0.09   0.00    -0.12  -0.32   0.01     0.15  -0.02  -0.00
   3   6    -0.28   0.02   0.00     0.08   0.33  -0.01    -0.17   0.10  -0.00
   4   6     0.20   0.15  -0.01    -0.04   0.25  -0.01    -0.40   0.29  -0.00
   5   6     0.06  -0.15   0.00    -0.20  -0.14   0.00     0.50  -0.01  -0.00
   6   6     0.09  -0.19   0.00     0.21   0.12  -0.00     0.10   0.03  -0.00
   7   6     0.14   0.14  -0.00     0.08  -0.17   0.00    -0.08   0.07  -0.00
   8   6    -0.03  -0.31   0.01     0.05  -0.36   0.01     0.29  -0.29   0.01
   9   6     0.16   0.30  -0.01     0.26   0.31  -0.01    -0.38  -0.09   0.00
  10   6     0.17   0.37  -0.01    -0.24  -0.26   0.01    -0.12  -0.04   0.00
  11   6     0.01  -0.40   0.01    -0.06   0.30  -0.01     0.10  -0.09   0.00
  12   1    -0.11  -0.01   0.00     0.03  -0.05   0.00    -0.10   0.06  -0.00
  13   1    -0.17  -0.01   0.00    -0.04   0.05  -0.00     0.00   0.02  -0.00
  14   1    -0.10   0.07  -0.00    -0.04  -0.03   0.00     0.01   0.02  -0.00
  15   1    -0.06   0.09  -0.00    -0.03   0.06  -0.00     0.02   0.12  -0.00
  16   1    -0.09  -0.07   0.00    -0.05  -0.06   0.00     0.02   0.12  -0.00
  17   1    -0.11  -0.08   0.00     0.04   0.05  -0.00     0.01   0.04  -0.00
  18   1    -0.07   0.11  -0.00     0.02  -0.05   0.00     0.01   0.04  -0.00
  19   1     0.03   0.05  -0.00    -0.02  -0.02   0.00    -0.06  -0.09   0.00
                     43                     44                     45
                        a                      a                      a 
 Frequencies --  1610.7639              3031.5804              3071.8767
 Red. masses --     7.4924                 1.0789                 1.0766
 Frc consts  --     0.0000                 0.0000                 0.0000
 IR Inten    --     2.4697                37.5903                 1.8380
 Raman Activ --     0.0000                 0.0000                 0.0000
 Depolar     --     0.0000                 0.0000                 0.0000
 Atom AN      X      Y      Z        X      Y      Z        X      Y      Z
   1   8     0.01  -0.00  -0.00     0.00   0.00  -0.00     0.00  -0.00   0.00
   2   6     0.23  -0.10   0.00    -0.01  -0.01   0.00     0.00  -0.00   0.00
   3   6    -0.27   0.06   0.00     0.00   0.00  -0.00    -0.00   0.01  -0.00
   4   6    -0.09   0.04  -0.00    -0.00  -0.01   0.00     0.00   0.00  -0.00
   5   6     0.08  -0.04   0.00    -0.00  -0.00   0.00    -0.02  -0.06   0.00
   6   6    -0.47   0.01   0.00    -0.05  -0.26   0.01     0.00  -0.01   0.00
   7   6     0.47  -0.21   0.00     0.00  -0.00   0.00     0.04   0.21  -0.00
   8   6     0.03  -0.06   0.00     0.00   0.00  -0.00     0.00   0.00  -0.00
   9   6    -0.01   0.03  -0.00     0.00  -0.00   0.00    -0.02   0.02  -0.00
  10   6     0.36   0.09  -0.00    -0.02   0.02  -0.00     0.03  -0.03   0.00
  11   6    -0.31   0.27  -0.00    -0.00   0.00  -0.00    -0.12  -0.04   0.00
  12   1    -0.03   0.00   0.00     0.00   0.01  -0.00     0.05   0.21  -0.00
  13   1     0.11  -0.04  -0.00     0.18   0.94  -0.02     0.00   0.02  -0.00
  14   1    -0.12  -0.01   0.00     0.00   0.00  -0.00    -0.16  -0.77   0.02
  15   1    -0.00   0.01  -0.00    -0.00  -0.00   0.00    -0.01  -0.00   0.00
  16   1    -0.01  -0.00   0.00    -0.00   0.00  -0.00     0.07  -0.06   0.00
  17   1    -0.02  -0.11   0.00     0.10  -0.09   0.00    -0.13   0.12  -0.00
  18   1    -0.03  -0.11   0.00     0.01  -0.00  -0.00     0.46   0.14  -0.01
  19   1    -0.02  -0.03   0.00    -0.01   0.02  -0.00    -0.00   0.00  -0.00
                     46                     47                     48
                        a                      a                      a 
 Frequencies --  3077.9692              3080.4402              3089.8268
 Red. masses --     1.0765                 1.0815                 1.0865
 Frc consts  --     0.0000                 0.0000                 0.0000
 IR Inten    --     4.5916                47.9971                77.2412
 Raman Activ --     0.0000                 0.0000                 0.0000
 Depolar     --     0.0000                 0.0000                 0.0000
 Atom AN      X      Y      Z        X      Y      Z        X      Y      Z
   1   8    -0.00   0.00  -0.00     0.00   0.00  -0.00     0.00   0.00  -0.00
   2   6     0.00   0.00  -0.00    -0.00   0.00  -0.00     0.00   0.00  -0.00
   3   6    -0.01  -0.01   0.00     0.00  -0.00   0.00    -0.01  -0.00   0.00
   4   6     0.00   0.00  -0.00     0.00  -0.00   0.00    -0.00  -0.00   0.00
   5   6    -0.05  -0.19   0.00    -0.01  -0.05   0.00    -0.04  -0.15   0.00
   6   6     0.00   0.01  -0.00    -0.01  -0.03   0.00    -0.00  -0.01   0.00
   7   6    -0.00  -0.01   0.00    -0.03  -0.13   0.00     0.00   0.03  -0.00
   8   6     0.01   0.01  -0.00     0.01   0.00  -0.00    -0.04  -0.01   0.00
   9   6    -0.11   0.10  -0.00    -0.05   0.04  -0.00     0.14  -0.13   0.00
  10   6    -0.06   0.05  -0.00     0.15  -0.13   0.00     0.06  -0.05   0.00
  11   6     0.07   0.02  -0.00    -0.09  -0.03   0.00     0.09   0.03  -0.00
  12   1     0.16   0.68  -0.02     0.05   0.20  -0.00     0.12   0.50  -0.01
  13   1    -0.01  -0.04   0.00     0.02   0.09  -0.00     0.01   0.03  -0.00
  14   1     0.01   0.03  -0.00     0.09   0.44  -0.01    -0.02  -0.08   0.00
  15   1    -0.07  -0.02   0.00    -0.04  -0.01   0.00     0.17   0.05  -0.00
  16   1     0.40  -0.36   0.01     0.17  -0.16   0.00    -0.49   0.44  -0.01
  17   1     0.20  -0.18   0.00    -0.53   0.48  -0.01    -0.20   0.18  -0.00
  18   1    -0.26  -0.08   0.00     0.31   0.10  -0.00    -0.32  -0.10   0.00
  19   1     0.00  -0.00   0.00    -0.00   0.00  -0.00    -0.00   0.00  -0.00
                     49                     50                     51
                        a                      a                      a 
 Frequencies --  3091.9606              3110.7449              3521.7538
 Red. masses --     1.0887                 1.0843                 1.0643
 Frc consts  --     0.0000                 0.0000                 0.0000
 IR Inten    --    50.6903                24.4529                32.2465
 Raman Activ --     0.0000                 0.0000                 0.0000
 Depolar     --     0.0000                 0.0000                 0.0000
 Atom AN      X      Y      Z        X      Y      Z        X      Y      Z
   1   8    -0.00  -0.00   0.00    -0.00  -0.00   0.00    -0.19   0.14  -0.00
   2   6     0.00   0.00  -0.00    -0.00  -0.00   0.00    -0.00  -0.00   0.00
   3   6     0.00  -0.00   0.00    -0.00  -0.00   0.00     0.00   0.00  -0.00
   4   6    -0.00  -0.00   0.00     0.00   0.01  -0.00    -0.00   0.01  -0.00
   5   6    -0.02  -0.08   0.00    -0.01  -0.02   0.00    -0.00  -0.00   0.00
   6   6     0.01   0.02  -0.00     0.00   0.00  -0.00    -0.00  -0.01   0.00
   7   6    -0.02  -0.10   0.00    -0.00  -0.00   0.00    -0.00   0.00  -0.00
   8   6    -0.03  -0.01   0.00     0.26   0.08  -0.00     0.00  -0.00   0.00
   9   6     0.07  -0.06   0.00     0.05  -0.05   0.00    -0.00   0.00  -0.00
  10   6    -0.10   0.09  -0.00    -0.00   0.00  -0.00     0.00   0.00  -0.00
  11   6    -0.18  -0.05   0.00    -0.00  -0.00   0.00     0.00  -0.00   0.00
  12   1     0.07   0.28  -0.01     0.02   0.07  -0.00     0.00   0.00  -0.00
  13   1    -0.01  -0.07   0.00    -0.00  -0.01   0.00     0.00   0.02  -0.00
  14   1     0.07   0.32  -0.01     0.00   0.01  -0.00     0.00   0.00  -0.00
  15   1     0.11   0.03  -0.00    -0.89  -0.28   0.01     0.01   0.00  -0.00
  16   1    -0.22   0.20  -0.00    -0.16   0.14  -0.00     0.00   0.00  -0.00
  17   1     0.34  -0.31   0.00     0.01  -0.01   0.00    -0.00   0.00  -0.00
  18   1     0.61   0.19  -0.01     0.02   0.00  -0.00     0.00   0.00  -0.00
  19   1     0.00  -0.00  -0.00     0.00  -0.00   0.00     0.77  -0.59   0.01
