[Molden Format]
[Title]
[Atoms] AU
O      1     8 -0.32881925271384E+01 -0.41131319325366E+01  0.16835808208653E+00
C      2     6  0.25074022418002E-01 -0.91728602672701E+00  0.63083098529850E-01
C      3     6  0.60357929173957E+00  0.17069679092313E+01  0.21932888211105E-02
C      4     6 -0.25618476227871E+01 -0.16495178106949E+01  0.10015399805108E+00
C      5     6 -0.13700383376216E+01  0.34939270926635E+01 -0.24831861810682E-01
C      6     6  0.20429378316377E+01 -0.26630794287054E+01  0.83154491808548E-01
C      7     6  0.31610673437710E+01  0.24597194339624E+01 -0.30687002878106E-01
C      8     6 -0.44351931543017E+01  0.15118302614149E+00  0.69741347293853E-01
C      9     6 -0.38347519194966E+01  0.27220951138114E+01  0.65410514169829E-02
C     10     6  0.45004558386913E+01 -0.18666192653348E+01  0.48532667452702E-01
C     11     6  0.50677919147283E+01  0.72055870011726E+00 -0.74097391392157E-02
H     12     1 -0.89790985279612E+00  0.54789794140025E+01 -0.71031835533032E-01
H     13     1  0.16716774767105E+01 -0.46762326164991E+01  0.12441047954944E+00
H     14     1  0.35826331542029E+01  0.44575495279950E+01 -0.75142122370983E-01
H     15     1 -0.63770644564831E+01 -0.46617844116648E+00  0.97761477606801E-01
H     16     1 -0.53470369652979E+01  0.40918893435161E+01 -0.15797647767594E-01
H     17     1  0.60181563872592E+01 -0.32314174655674E+01  0.63784046155010E-01
H     18     1  0.70183077152008E+01  0.13205572195037E+01 -0.32404647267695E-01
H     19     1 -0.18302283745643E+01 -0.52041442652551E+01  0.19000036340737E+00
[GTO]
           1 0
 s           4   1.0000000000000000     
   69.137961906196551      -0.20478756370077797     
   11.906129132707308      -0.24997023136827334     
  0.95670827744340703       0.40025880240639616     
  0.36462520496073686       0.15952206667693555     
 p           4   1.0000000000000000     
   8.2124193257781641        1.1321556799186829     
   2.1293576997098116        1.0476840782254817     
  0.75066448202360914       0.54956508217158984     
  0.29885246543283073        8.2908486592766617E-002

           2 0
 s           4   1.0000000000000000     
   51.049363095579913      -0.16312063210127389     
   8.7911227406887544      -0.19911024581000730     
  0.70640422258929825       0.31882047753655751     
  0.26922813413411617       0.12706504184240380     
 p           4   1.0000000000000000     
   5.8263656140800002       0.73716451545209605     
   1.5106896018720002       0.68216371614850257     
  0.53256483288000001       0.35783053929253711     
  0.21202323690600003        5.3983030275847881E-002

           3 0
 s           4   1.0000000000000000     
   51.049363095579913      -0.16312063210127389     
   8.7911227406887544      -0.19911024581000730     
  0.70640422258929825       0.31882047753655751     
  0.26922813413411617       0.12706504184240380     
 p           4   1.0000000000000000     
   5.8263656140800002       0.73716451545209605     
   1.5106896018720002       0.68216371614850257     
  0.53256483288000001       0.35783053929253711     
  0.21202323690600003        5.3983030275847881E-002

           4 0
 s           4   1.0000000000000000     
   51.049363095579913      -0.16312063210127389     
   8.7911227406887544      -0.19911024581000730     
  0.70640422258929825       0.31882047753655751     
  0.26922813413411617       0.12706504184240380     
 p           4   1.0000000000000000     
   5.8263656140800002       0.73716451545209605     
   1.5106896018720002       0.68216371614850257     
  0.53256483288000001       0.35783053929253711     
  0.21202323690600003        5.3983030275847881E-002

           5 0
 s           4   1.0000000000000000     
   51.049363095579913      -0.16312063210127389     
   8.7911227406887544      -0.19911024581000730     
  0.70640422258929825       0.31882047753655751     
  0.26922813413411617       0.12706504184240380     
 p           4   1.0000000000000000     
   5.8263656140800002       0.73716451545209605     
   1.5106896018720002       0.68216371614850257     
  0.53256483288000001       0.35783053929253711     
  0.21202323690600003        5.3983030275847881E-002

           6 0
 s           4   1.0000000000000000     
   51.049363095579913      -0.16312063210127389     
   8.7911227406887544      -0.19911024581000730     
  0.70640422258929825       0.31882047753655751     
  0.26922813413411617       0.12706504184240380     
 p           4   1.0000000000000000     
   5.8263656140800002       0.73716451545209605     
   1.5106896018720002       0.68216371614850257     
  0.53256483288000001       0.35783053929253711     
  0.21202323690600003        5.3983030275847881E-002

           7 0
 s           4   1.0000000000000000     
   51.049363095579913      -0.16312063210127389     
   8.7911227406887544      -0.19911024581000730     
  0.70640422258929825       0.31882047753655751     
  0.26922813413411617       0.12706504184240380     
 p           4   1.0000000000000000     
   5.8263656140800002       0.73716451545209605     
   1.5106896018720002       0.68216371614850257     
  0.53256483288000001       0.35783053929253711     
  0.21202323690600003        5.3983030275847881E-002

           8 0
 s           4   1.0000000000000000     
   51.049363095579913      -0.16312063210127389     
   8.7911227406887544      -0.19911024581000730     
  0.70640422258929825       0.31882047753655751     
  0.26922813413411617       0.12706504184240380     
 p           4   1.0000000000000000     
   5.8263656140800002       0.73716451545209605     
   1.5106896018720002       0.68216371614850257     
  0.53256483288000001       0.35783053929253711     
  0.21202323690600003        5.3983030275847881E-002

           9 0
 s           4   1.0000000000000000     
   51.049363095579913      -0.16312063210127389     
   8.7911227406887544      -0.19911024581000730     
  0.70640422258929825       0.31882047753655751     
  0.26922813413411617       0.12706504184240380     
 p           4   1.0000000000000000     
   5.8263656140800002       0.73716451545209605     
   1.5106896018720002       0.68216371614850257     
  0.53256483288000001       0.35783053929253711     
  0.21202323690600003        5.3983030275847881E-002

          10 0
 s           4   1.0000000000000000     
   51.049363095579913      -0.16312063210127389     
   8.7911227406887544      -0.19911024581000730     
  0.70640422258929825       0.31882047753655751     
  0.26922813413411617       0.12706504184240380     
 p           4   1.0000000000000000     
   5.8263656140800002       0.73716451545209605     
   1.5106896018720002       0.68216371614850257     
  0.53256483288000001       0.35783053929253711     
  0.21202323690600003        5.3983030275847881E-002

          11 0
 s           4   1.0000000000000000     
   51.049363095579913      -0.16312063210127389     
   8.7911227406887544      -0.19911024581000730     
  0.70640422258929825       0.31882047753655751     
  0.26922813413411617       0.12706504184240380     
 p           4   1.0000000000000000     
   5.8263656140800002       0.73716451545209605     
   1.5106896018720002       0.68216371614850257     
  0.53256483288000001       0.35783053929253711     
  0.21202323690600003        5.3983030275847881E-002

          12 0
 s           3   1.0000000000000000     
   3.3702276975336001       0.27359110588908298     
  0.61389118221497996       0.26460540653860526     
  0.16614291148415999        8.2465947534082318E-002

          13 0
 s           3   1.0000000000000000     
   3.3702276975336001       0.27359110588908298     
  0.61389118221497996       0.26460540653860526     
  0.16614291148415999        8.2465947534082318E-002

          14 0
 s           3   1.0000000000000000     
   3.3702276975336001       0.27359110588908298     
  0.61389118221497996       0.26460540653860526     
  0.16614291148415999        8.2465947534082318E-002

          15 0
 s           3   1.0000000000000000     
   3.3702276975336001       0.27359110588908298     
  0.61389118221497996       0.26460540653860526     
  0.16614291148415999        8.2465947534082318E-002

          16 0
 s           3   1.0000000000000000     
   3.3702276975336001       0.27359110588908298     
  0.61389118221497996       0.26460540653860526     
  0.16614291148415999        8.2465947534082318E-002

          17 0
 s           3   1.0000000000000000     
   3.3702276975336001       0.27359110588908298     
  0.61389118221497996       0.26460540653860526     
  0.16614291148415999        8.2465947534082318E-002

          18 0
 s           3   1.0000000000000000     
   3.3702276975336001       0.27359110588908298     
  0.61389118221497996       0.26460540653860526     
  0.16614291148415999        8.2465947534082318E-002

          19 0
 s           3   1.0000000000000000     
   3.3702276975336001       0.27359110588908298     
  0.61389118221497996       0.26460540653860526     
  0.16614291148415999        8.2465947534082318E-002

[MO]
Sym=     1a
Ene=  -0.71085222697080463     
Spin= Alpha
Occup=     2.00000000
           1  0.74210700953119524     
           2   7.6352626607416721E-002
           3   7.4694732471300429E-002
           4  -2.3436559251770158E-003
           5   4.3513733069462990E-002
           6  -3.1475917110281047E-002
           7  -2.8750558334362238E-002
           8   9.5751274707029928E-004
           9  -7.9646676325218066E-004
          10  -2.3897008899549411E-003
          11  -4.5464370586431827E-003
          12   1.2412846467643518E-004
          13  0.23559713628212514     
          14  -3.5363565318239781E-002
          15 -0.17167028760669645     
          16   4.6716639074779152E-003
          17  -1.7239616734299652E-003
          18  -6.0359393621521915E-005
          19  -6.9999826034881419E-004
          20   1.8104044717348000E-005
          21   1.6354130321398500E-002
          22  -1.5325962988140311E-002
          23  -4.3243771237827576E-004
          24   1.6469529207230855E-004
          25  -1.6157369963338297E-003
          26   3.2551385508155627E-004
          27  -1.7957076812301861E-005
          28  -7.0636484711821074E-007
          29   3.2225100909941060E-002
          30   1.7747351245320866E-002
          31  -3.5132863804966781E-002
          32   7.5004077665615540E-004
          33  -1.9799784471232320E-003
          34   4.5092499643246942E-004
          35  -3.4839996238780384E-003
          36   8.1861975264038738E-005
          37  -1.3465528547121784E-004
          38  -1.6480552635974649E-003
          39  -4.4707499689658974E-004
          40   2.4392199858588148E-005
          41  -7.6158042211102320E-004
          42   8.7210438324150007E-005
          43  -1.1129611902324642E-004
          44   2.4111094653398940E-006
          45  -1.0086589297658744E-004
          46   1.0353551157925160E-002
          47  -9.4985314700725683E-005
          48   1.9439555915832995E-003
          49  -6.5422838341736551E-005
          50  -4.7281561235814919E-005
          51  -4.2163127317838309E-005
          52  0.14950609306810730     
Sym=     2a
Ene=  -0.65488607559154199     
Spin= Alpha
Occup=     2.00000000
           1 -0.16042871154457591     
           2   1.7789300382379022E-002
           3  0.14763011390596814     
           4  -3.9611739112769195E-003
           5  0.35950529983408203     
           6  -2.0391538839876499E-002
           7   2.6383498948718161E-002
           8  -4.0265328484949186E-004
           9  0.27480774704606614     
          10  -1.9748804752721807E-002
          11  -6.5876195357646133E-002
          12   1.5564851393969536E-003
          13  0.28305396187384602     
          14   6.1329745955378205E-002
          15   8.9111633163649728E-002
          16  -2.6129325712855806E-003
          17  0.14471326966054854     
          18   1.0531788445689040E-002
          19  -6.9981079161608020E-002
          20   1.4747696402997328E-003
          21  0.19328649800488321     
          22  -3.4669391677224048E-002
          23   7.4919345841083340E-002
          24  -1.2439635142370425E-003
          25  0.14009543265499208     
          26  -4.0350903755009396E-002
          27  -5.3258266596919346E-002
          28   1.3874818095621481E-003
          29  0.17634459082944473     
          30   8.3696935198247363E-002
          31  -1.0642003899998120E-002
          32  -2.7927065764826373E-004
          33  0.12772990698152453     
          34   4.3480970602487831E-002
          35  -4.7389508428743413E-002
          36   8.3930980525504450E-004
          37  0.12386598547270156     
          38  -5.2992587416547221E-002
          39   2.7816758772601841E-002
          40  -1.5835742468461669E-004
          41  0.11030774851379944     
          42  -5.1907327570078168E-002
          43  -1.3947738957834625E-002
          44   6.3371461640599814E-004
          45   2.1166989178541880E-002
          46   3.5016471058438282E-002
          47   2.1993517755311477E-002
          48   2.6024815415109134E-002
          49   1.6415947264797146E-002
          50   1.8275740044759608E-002
          51   1.5324356121673051E-002
          52  -6.0119790126532749E-002
Sym=     3a
Ene=  -0.64573476926110607     
Spin= Alpha
Occup=     2.00000000
           1  0.10166219233279028     
           2   7.5888567342499852E-002
           3 -0.23962609371277704     
           4   5.7632806769699202E-003
           5   7.0805587342412227E-002
           6  0.14689171921355348     
           7  -1.3023897154557590E-002
           8  -8.2178941938864899E-004
           9   9.4647083712288901E-002
          10   9.4236900278053357E-002
          11  -2.6725519852258371E-002
          12  -6.7911933065441352E-005
          13 -0.26817184687015755     
          14   9.6517620782540489E-002
          15  -5.0767143977793541E-002
          16   5.2785527121623961E-004
          17  -5.9819883312481469E-002
          18   4.6812575474704604E-002
          19   1.9832600863799434E-002
          20  -7.4334126205678817E-004
          21  0.23297164401399545     
          22   3.9467382783526371E-002
          23   5.5743649369010294E-002
          24  -1.3653813898368726E-003
          25  0.18437052181657537     
          26   5.6355041383934117E-003
          27  -7.0388856242277809E-002
          28   1.4273115038554176E-003
          29 -0.24033742986223885     
          30  -7.1344616594679763E-002
          31   3.4438558803684800E-002
          32  -3.9636351668873374E-004
          33 -0.13461134680511719     
          34  -1.7097639636442976E-002
          35   5.5169599180515581E-002
          36  -1.1961426012247868E-003
          37  0.23729730123533832     
          38  -6.5899222653877473E-002
          39   4.4239222601231747E-002
          40  -3.7730272491102301E-004
          41  0.21275157276156245     
          42  -7.1068376972502192E-002
          43  -3.0596007608306088E-002
          44   1.0948402050655465E-003
          45  -6.4617151275549916E-003
          46   6.0819792875326524E-002
          47   3.1683449955645933E-002
          48  -5.0164850787075381E-002
          49  -2.2560747289852721E-002
          50   4.4973206146610857E-002
          51   3.7806165870988520E-002
          52  0.13192110749253175     
Sym=     4a
Ene=  -0.62902255490966430     
Spin= Alpha
Occup=     2.00000000
           1  0.16413148170551495     
           2   1.9273616710431915E-002
           3 -0.26412488554983743     
           4   6.9749071888948137E-003
           5  -7.9555480290136760E-002
           6   3.2468766005235850E-003
           7  0.14406158846220080     
           8  -3.1296584870343256E-003
           9  0.29253404858850207     
          10  -4.0863070004323536E-002
          11   9.3406617353286828E-002
          12  -1.7844504561766123E-003
          13 -0.20431157973324396     
          14   1.0527954980143922E-002
          15   5.1776023798245426E-002
          16  -1.1402826668568502E-003
          17  0.33022591853253291     
          18   1.1742374836627951E-002
          19  -6.8936061469330887E-002
          20   1.4247650705980935E-003
          21 -0.20764270447867617     
          22  -1.0280867957599570E-002
          23  -1.8031202247648190E-002
          24   4.0717426719484405E-004
          25  0.14205806810264127     
          26  -8.3467789161939698E-002
          27   1.2430520462398873E-002
          28   2.8946063541095422E-004
          29  -4.8471958014597027E-003
          30  -2.4364492751620436E-003
          31  0.11074365383060332     
          32  -2.5359430279832725E-003
          33  0.21768162237570399     
          34   8.7555894956808142E-002
          35   1.4271993806276114E-002
          36  -8.1721373508068893E-004
          37 -0.16213451906464169     
          38   4.7474996490960833E-002
          39   1.0889340507423411E-002
          40  -6.0306232475341288E-004
          41  -3.6819996157660524E-002
          42  -1.3486558705921451E-002
          43   6.0876851308305391E-002
          44  -1.1615388632988141E-003
          45   8.1180399778149281E-002
          46  -5.6571541873670472E-002
          47   4.5487538604233060E-002
          48  -1.2890705739049395E-002
          49   4.8192541625684669E-002
          50  -4.2633113562265894E-002
          51  -9.5919989279296125E-003
          52  0.12407131154806018     
Sym=     5a
Ene=  -0.62583767924868206     
Spin= Alpha
Occup=     2.00000000
           1   7.4696922919574901E-002
           2 -0.19097565200793898     
           3  0.19066643991508087     
           4  -3.7791427177432291E-003
           5 -0.27426317190591315     
           6   9.7317853879973493E-003
           7   7.0648160110872438E-002
           8  -1.6265585633683504E-003
           9   1.5111642240610280E-002
          10  0.10215068201427310     
          11   7.7914832473976084E-002
          12  -2.3782565382056971E-003
          13   3.4446705052807301E-002
          14 -0.22289786523463714     
          15  -3.7055550860634973E-002
          16   2.5452579285285596E-003
          17  -1.4888846963742236E-002
          18   1.5048730628351589E-002
          19   1.3727398998562509E-002
          20  -3.9098859938171737E-004
          21 -0.16644908052260626     
          22  0.12464938098988509     
          23   4.3556898817379945E-003
          24  -1.1193526114952664E-003
          25  0.27303238576756023     
          26   5.8339794459509882E-002
          27  -6.1731279881689333E-002
          28   8.7293446427148271E-004
          29  0.12830592442382263     
          30  -6.4527346431074925E-003
          31  -5.3923711132749810E-002
          32   1.3772126607968403E-003
          33   6.7381443429953228E-003
          34  -1.9875672910603045E-002
          35  -2.4159160338504220E-002
          36   6.9671599936402641E-004
          37  0.14423689775618340     
          38   5.1150090177889247E-002
          39  0.10131123831971378     
          40  -2.4366929807307916E-003
          41  0.32274195791394167     
          42  -6.1513657894830806E-002
          43   1.2145514060111709E-002
          44   1.2386158793971418E-004
          45   3.3084622490405381E-003
          46  -8.5056071018047630E-002
          47   7.0209781791557221E-002
          48   4.9603796914006876E-002
          49   2.4404971751101553E-003
          50   3.6091295263429239E-002
          51   8.4472993962773885E-002
          52 -0.14599024506834427     
Sym=     6a
Ene=  -0.61506503487236286     
Spin= Alpha
Occup=     2.00000000
           1  -7.0321480551826368E-002
           2   1.7629805310853657E-002
           3  0.13858576629630534     
           4  -3.8309304260050569E-003
           5  0.13187475493375952     
           6  -4.0976859136320612E-002
           7   5.0771295663849428E-002
           8  -6.4518722575847309E-004
           9  0.20623109012108784     
          10   8.6439022669705823E-002
          11  -1.6382220810058339E-002
          12  -1.3080917616525864E-004
          13   9.4599753840405379E-002
          14   6.8600028467174723E-002
          15  -6.5669458317953733E-002
          16   1.0886529503890603E-003
          17 -0.12288125397238216     
          18  0.15312261652064610     
          19   2.9062389945024325E-003
          20  -9.9226129228661584E-004
          21 -0.18310629419713154     
          22 -0.12524323125886686     
          23   2.0879792778481180E-002
          24   4.9868936034261737E-004
          25  0.20675283172449319     
          26  -6.6014506026889352E-002
          27   3.2638482643067724E-004
          28   4.7034439316688510E-004
          29 -0.20040261021597758     
          30  -5.5819951075121938E-003
          31 -0.12134960224469973     
          32   2.8198908505208554E-003
          33 -0.34380763120880431     
          34  -1.8358343684141822E-002
          35   3.4914541225687837E-002
          36  -7.5964577554992548E-004
          37 -0.29228183891628817     
          38   3.6734128873936851E-002
          39   2.6368949720296436E-002
          40  -8.4477304672582313E-004
          41  -4.9944888126288833E-002
          42  -3.4782693523498678E-002
          43  0.12249370794794101     
          44  -2.2612677826894922E-003
          45  -2.4179307519442930E-002
          46  -7.1086766975988855E-002
          47   6.4288426919383912E-002
          48  -4.9387305484905053E-002
          49  -9.9672033099380344E-002
          50  -9.7786978788611145E-002
          51  -1.6554210246237624E-002
          52  -6.2607647351102899E-002
Sym=     7a
Ene=  -0.59525207094876653     
Spin= Alpha
Occup=     2.00000000
           1  -7.0708971510855229E-002
           2  0.20940478985063785     
           3 -0.23132221376778564     
           4   5.0709155604204302E-003
           5   9.9728471739802066E-002
           6 -0.11366614978761365     
           7  -4.0447655929980439E-002
           8   1.9004312690953050E-003
           9 -0.18880142865825170     
          10   3.4960614440099812E-002
          11 -0.10790737586151658     
          12   2.2104589852238350E-003
          13   4.8031288917697049E-002
          14  0.14808623079711447     
          15  0.13221893809005070     
          16  -4.1566281402501204E-003
          17 -0.21072995063058883     
          18 -0.10126058409224491     
          19   1.9561256034180495E-004
          20   6.4802152415741586E-004
          21 -0.17969510277782963     
          22 -0.12127628701584987     
          23   1.0382749108383554E-002
          24   8.0653898630766389E-004
          25  0.10238983406311249     
          26  0.17573856938738067     
          27  -5.4201754524871359E-002
          28  -3.3166967885468014E-006
          29  0.13448998369029183     
          30   3.1277735318115799E-002
          31   9.2738995654771533E-002
          32  -2.4098164117012108E-003
          33  0.10961092154862258     
          34  -7.7347786732377327E-002
          35  -8.0239837082112603E-002
          36   2.3014355638437192E-003
          37 -0.14216047782760613     
          38   9.1934061369580142E-002
          39  0.12924752244390469     
          40  -3.2740809055178842E-003
          41  0.26357212653206114     
          42   3.2163530215371596E-003
          43   9.2003492971819631E-002
          44  -1.9012083218137093E-003
          45  -8.7584846944447986E-002
          46  -4.6983182139877996E-002
          47   2.7385581414294514E-002
          48   1.8255332847115578E-002
          49   4.0415208210793217E-002
          50  -6.1450035398925559E-002
          51  0.11166032703335461     
          52  0.17116925602462682     
Sym=     8a
Ene=  -0.58407944720271787     
Spin= Alpha
Occup=     2.00000000
           1  0.13731967827582775     
           2 -0.17135794906745988     
           3 -0.17228990066376235     
           4   5.7216355161628886E-003
           5   5.9874436093009199E-003
           6  0.15515959440475730     
           7   5.9764134110986231E-002
           8  -2.6927807324589699E-003
           9   8.6542989182690683E-002
          10  0.14122919315030227     
          11  -7.3471464895731864E-002
          12   6.6137290648758944E-004
          13 -0.11642376042569795     
          14 -0.16153512884932331     
          15  0.12384530323290611     
          16  -1.9334201517353996E-003
          17 -0.26776719446041980     
          18   4.0263343890626836E-002
          19  -3.5572725699421041E-002
          20   5.5793888007570503E-004
          21  0.13042639269674605     
          22  -2.5309798753554800E-003
          23   1.8514321860910531E-002
          24  -4.5140150513430730E-004
          25  0.10104036042199938     
          26 -0.10095490379154544     
          27   1.3463821730168159E-003
          28   6.9205960293948585E-004
          29  0.31121455387120583     
          30  -5.5352512107825769E-002
          31   3.1621894477598736E-002
          32  -3.7983233086583541E-004
          33   9.7873199811097291E-003
          34 -0.15211278407076434     
          35 -0.16122600266702983     
          36   4.5934985897580442E-003
          37 -0.11818198751092968     
          38 -0.12254717348128569     
          39  -8.2475559962729483E-002
          40   2.5260897020815670E-003
          41 -0.21544396661525067     
          42  -8.0646381928091343E-002
          43   6.8939067316655306E-002
          44  -8.3709104615534429E-004
          45 -0.11240858992709393     
          46   4.0339811890492405E-002
          47   2.4188351096674315E-002
          48  0.13652788050448150     
          49   6.6097011345896163E-003
          50  -6.6817012579042823E-002
          51 -0.11403677655524921     
          52   2.4494478920731897E-002
Sym=     9a
Ene=  -0.57795286746360730     
Spin= Alpha
Occup=     2.00000000
           1  0.11760147226899131     
           2  -7.6508597619637936E-002
           3 -0.18847006051293960     
           4   5.9648033449527897E-003
           5   6.8589882642937194E-002
           6  -6.4784754412141460E-002
           7  0.22298833102875740     
           8  -4.2217348862062642E-003
           9  0.15376848190028836     
          10 -0.11624590919958874     
          11 -0.12345973786372171     
          12   3.5020366728865352E-003
          13  -7.7577694884255364E-003
          14  -4.7821453874059647E-003
          15  0.14587839375834574     
          16  -3.1510199691987257E-003
          17 -0.10399030589221454     
          18   9.9310908461366795E-002
          19  -9.8825162155526350E-002
          20   1.6112036808075905E-003
          21 -0.21775271777932489     
          22  0.10615578297464678     
          23   8.0586637507006315E-002
          24  -2.4736229661107239E-003
          25 -0.25634287313524368     
          26  -6.8029528739185996E-002
          27  -6.6695753289488652E-002
          28   1.8570194398786477E-003
          29   2.9163135129282980E-002
          30   4.4434782362344070E-002
          31  -5.3504280689698071E-002
          32   9.8454541679115354E-004
          33 -0.19831261544547116     
          34   4.6822020519037243E-003
          35  -8.7733758715500071E-002
          36   1.9353764040138150E-003
          37  0.19775557164021174     
          38  0.11275595558746175     
          39   6.1318969450789539E-002
          40  -2.0543001820242774E-003
          41   3.0308167239160383E-002
          42   6.5981320199191909E-002
          43 -0.19804819795405718     
          44   3.5956354769911777E-003
          45  -8.4007430448374665E-002
          46 -0.14892605438197934     
          47 -0.14463527585396949     
          48  -4.3425995601688028E-003
          49 -0.11095990324637238     
          50  0.10154375851200940     
          51   1.4458514832844745E-002
          52   4.3005322071597678E-002
Sym=    10a
Ene=  -0.56174351734048233     
Spin= Alpha
Occup=     2.00000000
           1  0.17851864896537004     
           2 -0.28716684285268579     
           3  0.13840313300205934     
           4  -2.5660598424890398E-003
           5  0.18227409297535715     
           6  0.18361495945642539     
           7   5.2800104850094280E-002
           8  -2.7127130045601550E-003
           9  -1.6548688105954130E-002
          10  -4.9767473956918024E-003
          11 -0.20926692745615255     
          12   4.4210701597145567E-003
          13 -0.13692749309121202     
          14  -3.1989518940043822E-002
          15 -0.13720757870008196     
          16   3.2590454834922331E-003
          17  -4.9452220682485613E-003
          18 -0.16493155604591145     
          19   1.1124573729272306E-002
          20   6.4596614567072677E-004
          21  -3.5685416795932498E-002
          22 -0.11242612017009010     
          23  0.20337031254430551     
          24  -3.3877422350701300E-003
          25 -0.13534202073355833     
          26   3.8357206863404228E-002
          27 -0.12629170575304566     
          28   2.3972681943728283E-003
          29 -0.14616992984477778     
          30  -6.4220895644310910E-002
          31   6.6599541230945983E-002
          32  -1.1512488131102214E-003
          33  0.18492050489879844     
          34  -5.2197090218913025E-003
          35  0.12075829693429974     
          36  -2.7502665782101403E-003
          37 -0.12604805455610171     
          38  -3.7400688935006234E-002
          39  0.13973345794907108     
          40  -2.5459555395573948E-003
          41   4.5792536474673892E-002
          42  -2.2813429827442524E-002
          43  -1.9359240501193607E-002
          44   5.9640881021878734E-004
          45  -2.1237154042400976E-002
          46 -0.15931138724664737     
          47 -0.12638130195820499     
          48  -2.8949405131341692E-002
          49  0.12438635599877002     