[Molden Format]
[Title]
[Atoms] AU
O      1     8 -0.32881715784455E+01 -0.41131494432301E+01  0.16833942540369E+00
C      2     6  0.25078605114356E-01 -0.91728600552670E+00  0.63081585105079E-01
C      3     6  0.60357034640852E+00  0.17069710657074E+01  0.21983749056230E-02
C      4     6 -0.25618393354847E+01 -0.16495313992587E+01  0.10014217657017E+00
C      5     6 -0.13700565450744E+01  0.34939199624545E+01 -0.24830546169687E-01
C      6     6  0.20429514851846E+01 -0.26630688770117E+01  0.83156975123145E-01
C      7     6  0.31610545717654E+01  0.24597360387745E+01 -0.30671675667056E-01
C      8     6 -0.44351941892496E+01  0.15115968182754E+00  0.69726129369485E-01
C      9     6 -0.38347661951099E+01  0.27220750236629E+01  0.65324164749678E-02
C     10     6  0.45004654427869E+01 -0.18665957857076E+01  0.48545119216815E-01
C     11     6  0.50677881676563E+01  0.72058524790426E+00 -0.73907915628965E-02
H     12     1 -0.89793829269959E+00  0.54789748364534E+01 -0.71025407314457E-01
H     13     1  0.16717015270996E+01 -0.46762240806926E+01  0.12440815333887E+00
H     14     1  0.35826100767527E+01  0.44575684176763E+01 -0.75121836778672E-01
H     15     1 -0.63770623567041E+01 -0.46621200197791E+00  0.97738403767155E-01
H     16     1 -0.53470583351303E+01  0.40918613740384E+01 -0.15809170877012E-01
H     17     1  0.60181730841540E+01 -0.32313860658859E+01  0.63799413709925E-01
H     18     1  0.70183009137540E+01  0.13205940237709E+01 -0.32377843904794E-01
H     19     1 -0.18302017889188E+01 -0.52041541798313E+01  0.18998489183686E+00
[GTO]
           1 0
 s           4   1.0000000000000000     
   69.137961906196551      -0.20478756370077797     
   11.906129132707308      -0.24997023136827334     
  0.95670827744340703       0.40025880240639616     
  0.36462520496073686       0.15952206667693555     
 p           4   1.0000000000000000     
   8.2124193257781641        1.1321556799186829     
   2.1293576997098116        1.0476840782254817     
  0.75066448202360914       0.54956508217158984     
  0.29885246543283073        8.2908486592766617E-002

           2 0
 s           4   1.0000000000000000     
   51.049363095579913      -0.16312063210127389     
   8.7911227406887544      -0.19911024581000730     
  0.70640422258929825       0.31882047753655751     
  0.26922813413411617       0.12706504184240380     
 p           4   1.0000000000000000     
   5.8263656140800002       0.73716451545209605     
   1.5106896018720002       0.68216371614850257     
  0.53256483288000001       0.35783053929253711     
  0.21202323690600003        5.3983030275847881E-002

           3 0
 s           4   1.0000000000000000     
   51.049363095579913      -0.16312063210127389     
   8.7911227406887544      -0.19911024581000730     
  0.70640422258929825       0.31882047753655751     
  0.26922813413411617       0.12706504184240380     
 p           4   1.0000000000000000     
   5.8263656140800002       0.73716451545209605     
   1.5106896018720002       0.68216371614850257     
  0.53256483288000001       0.35783053929253711     
  0.21202323690600003        5.3983030275847881E-002

           4 0
 s           4   1.0000000000000000     
   51.049363095579913      -0.16312063210127389     
   8.7911227406887544      -0.19911024581000730     
  0.70640422258929825       0.31882047753655751     
  0.26922813413411617       0.12706504184240380     
 p           4   1.0000000000000000     
   5.8263656140800002       0.73716451545209605     
   1.5106896018720002       0.68216371614850257     
  0.53256483288000001       0.35783053929253711     
  0.21202323690600003        5.3983030275847881E-002

           5 0
 s           4   1.0000000000000000     
   51.049363095579913      -0.16312063210127389     
   8.7911227406887544      -0.19911024581000730     
  0.70640422258929825       0.31882047753655751     
  0.26922813413411617       0.12706504184240380     
 p           4   1.0000000000000000     
   5.8263656140800002       0.73716451545209605     
   1.5106896018720002       0.68216371614850257     
  0.53256483288000001       0.35783053929253711     
  0.21202323690600003        5.3983030275847881E-002

           6 0
 s           4   1.0000000000000000     
   51.049363095579913      -0.16312063210127389     
   8.7911227406887544      -0.19911024581000730     
  0.70640422258929825       0.31882047753655751     
  0.26922813413411617       0.12706504184240380     
 p           4   1.0000000000000000     
   5.8263656140800002       0.73716451545209605     
   1.5106896018720002       0.68216371614850257     
  0.53256483288000001       0.35783053929253711     
  0.21202323690600003        5.3983030275847881E-002

           7 0
 s           4   1.0000000000000000     
   51.049363095579913      -0.16312063210127389     
   8.7911227406887544      -0.19911024581000730     
  0.70640422258929825       0.31882047753655751     
  0.26922813413411617       0.12706504184240380     
 p           4   1.0000000000000000     
   5.8263656140800002       0.73716451545209605     
   1.5106896018720002       0.68216371614850257     
  0.53256483288000001       0.35783053929253711     
  0.21202323690600003        5.3983030275847881E-002

           8 0
 s           4   1.0000000000000000     
   51.049363095579913      -0.16312063210127389     
   8.7911227406887544      -0.19911024581000730     
  0.70640422258929825       0.31882047753655751     
  0.26922813413411617       0.12706504184240380     
 p           4   1.0000000000000000     
   5.8263656140800002       0.73716451545209605     
   1.5106896018720002       0.68216371614850257     
  0.53256483288000001       0.35783053929253711     
  0.21202323690600003        5.3983030275847881E-002

           9 0
 s           4   1.0000000000000000     
   51.049363095579913      -0.16312063210127389     
   8.7911227406887544      -0.19911024581000730     
  0.70640422258929825       0.31882047753655751     
  0.26922813413411617       0.12706504184240380     
 p           4   1.0000000000000000     
   5.8263656140800002       0.73716451545209605     
   1.5106896018720002       0.68216371614850257     
  0.53256483288000001       0.35783053929253711     
  0.21202323690600003        5.3983030275847881E-002

          10 0
 s           4   1.0000000000000000     
   51.049363095579913      -0.16312063210127389     
   8.7911227406887544      -0.19911024581000730     
  0.70640422258929825       0.31882047753655751     
  0.26922813413411617       0.12706504184240380     
 p           4   1.0000000000000000     
   5.8263656140800002       0.73716451545209605     
   1.5106896018720002       0.68216371614850257     
  0.53256483288000001       0.35783053929253711     
  0.21202323690600003        5.3983030275847881E-002

          11 0
 s           4   1.0000000000000000     
   51.049363095579913      -0.16312063210127389     
   8.7911227406887544      -0.19911024581000730     
  0.70640422258929825       0.31882047753655751     
  0.26922813413411617       0.12706504184240380     
 p           4   1.0000000000000000     
   5.8263656140800002       0.73716451545209605     
   1.5106896018720002       0.68216371614850257     
  0.53256483288000001       0.35783053929253711     
  0.21202323690600003        5.3983030275847881E-002

          12 0
 s           3   1.0000000000000000     
   3.3702276975336001       0.27359110588908298     
  0.61389118221497996       0.26460540653860526     
  0.16614291148415999        8.2465947534082318E-002

          13 0
 s           3   1.0000000000000000     
   3.3702276975336001       0.27359110588908298     
  0.61389118221497996       0.26460540653860526     
  0.16614291148415999        8.2465947534082318E-002

          14 0
 s           3   1.0000000000000000     
   3.3702276975336001       0.27359110588908298     
  0.61389118221497996       0.26460540653860526     
  0.16614291148415999        8.2465947534082318E-002

          15 0
 s           3   1.0000000000000000     
   3.3702276975336001       0.27359110588908298     
  0.61389118221497996       0.26460540653860526     
  0.16614291148415999        8.2465947534082318E-002

          16 0
 s           3   1.0000000000000000     
   3.3702276975336001       0.27359110588908298     
  0.61389118221497996       0.26460540653860526     
  0.16614291148415999        8.2465947534082318E-002

          17 0
 s           3   1.0000000000000000     
   3.3702276975336001       0.27359110588908298     
  0.61389118221497996       0.26460540653860526     
  0.16614291148415999        8.2465947534082318E-002

          18 0
 s           3   1.0000000000000000     
   3.3702276975336001       0.27359110588908298     
  0.61389118221497996       0.26460540653860526     
  0.16614291148415999        8.2465947534082318E-002

          19 0
 s           3   1.0000000000000000     
   3.3702276975336001       0.27359110588908298     
  0.61389118221497996       0.26460540653860526     
  0.16614291148415999        8.2465947534082318E-002

[MO]
Sym=     1a
Ene=  -0.71084946770494706     
Spin= Alpha
Occup=     2.00000000
           1  0.74210560568708805     
           2   7.6364146868237420E-002
           3   7.4685787105329388E-002
           4  -2.3429922286998498E-003
           5   4.3514254598208825E-002
           6  -3.1474865864764376E-002
           7  -2.8750920027960980E-002
           8   9.5735043997273428E-004
           9  -7.9634728959147296E-004
          10  -2.3896267277095751E-003
          11  -4.5465628187785411E-003
          12   1.2411416537930027E-004
          13  0.23559428370016194     
          14  -3.5358704784968074E-002
          15 -0.17167018354121960     
          16   4.6712222788729075E-003
          17  -1.7240281146705388E-003
          18  -6.0309461456207191E-005
          19  -6.9996675190512280E-004
          20   1.8101635859765481E-005
          21   1.6355484981391333E-002
          22  -1.5326581551859786E-002
          23  -4.3270954724433235E-004
          24   1.6465127113513985E-004
          25  -1.6157674703024556E-003
          26   3.2549037691187492E-004
          27  -1.7975071092582044E-005
          28  -7.0461522779297887E-007
          29   3.2223383694052914E-002
          30   1.7747146990356479E-002
          31  -3.5131564229107820E-002
          32   7.5001641174779813E-004
          33  -1.9802074315753825E-003
          34   4.5093685756310720E-004
          35  -3.4837997228549149E-003
          36   8.1853100842556911E-005
          37  -1.3453751912877391E-004
          38  -1.6482919943580276E-003
          39  -4.4716767145249110E-004
          40   2.4389350163278625E-005
          41  -7.6164754736471264E-004
          42   8.7193511864416701E-005
          43  -1.1130990437018978E-004
          44   2.4117334439600216E-006
          45  -1.0088061352347138E-004
          46   1.0354539752271663E-002
          47  -9.5003228898509344E-005
          48   1.9435308292180121E-003
          49  -6.5457670613705213E-005
          50  -4.7288677032444239E-005
          51  -4.2183898052374597E-005
          52  0.14951134699768065     
Sym=     2a
Ene=  -0.65488470809526966     
Spin= Alpha
Occup=     2.00000000
           1 -0.16040630161022765     
           2   1.7790945138697369E-002
           3  0.14759734144237052     
           4  -3.9600398231962658E-003
           5  0.35950107314285146     
           6  -2.0365169227313486E-002
           7   2.6380165532679085E-002
           8  -4.0282126027950925E-004
           9  0.27481565947403375     
          10  -1.9730358718668083E-002
          11  -6.5876677587306046E-002
          12   1.5561764237595156E-003
          13  0.28301197613839207     
          14   6.1334777391195833E-002
          15   8.9102663775238761E-002
          16  -2.6123887960881162E-003
          17  0.14470439758273806     
          18   1.0536733800793211E-002
          19  -6.9976873204052895E-002
          20   1.4745597095150093E-003
          21  0.19332652235732231     
          22  -3.4656011970136701E-002
          23   7.4928739387154636E-002
          24  -1.2442501487711912E-003
          25  0.14013114767141455     
          26  -4.0346002478103070E-002
          27  -5.3272602182168553E-002
          28   1.3875032444838884E-003
          29  0.17631517596972815     
          30   8.3685935762553065E-002
          31  -1.0636505347644935E-002
          32  -2.7904840301830731E-004
          33  0.12771538632982818     
          34   4.3478374202624098E-002
          35  -4.7382519365537334E-002
          36   8.3923814450118615E-004
          37  0.12391799043503483     
          38  -5.3004578595278594E-002
          39   2.7827347241241272E-002
          40  -1.5862457525421018E-004
          41  0.11035643898258335     
          42  -5.1922130684073219E-002
          43  -1.3955630026133125E-002
          44   6.3375687542071223E-004
          45   2.1166412455732458E-002
          46   3.5025796500772380E-002
          47   2.1999601268633689E-002
          48   2.6019731246819378E-002
          49   1.6414188783121512E-002
          50   1.8285781524593151E-002
          51   1.5333186178057503E-002
          52  -6.0103698329246870E-002
Sym=     3a
Ene=  -0.64573504321115793     
Spin= Alpha
Occup=     2.00000000
           1  0.10167641545454767     
           2   7.5869782211745257E-002
           3 -0.23961649378049896     
           4   5.7630202619978121E-003
           5   7.0720761085682773E-002
           6  0.14689262973646461     
           7  -1.3032111252316693E-002
           8  -8.2111969736950680E-004
           9   9.4575763688262426E-002
          10   9.4246641998155647E-002
          11  -2.6711089311804753E-002
          12  -6.7996324463416507E-005
          13 -0.26820460398173745     
          14   9.6486621154955682E-002
          15  -5.0784659268813474E-002
          16   5.2876644311325969E-004
          17  -5.9860928920496576E-002
          18   4.6807211193420253E-002
          19   1.9850073683405686E-002
          20  -7.4348654094679616E-004
          21  0.23294380997483691     
          22   3.9490480615550952E-002
          23   5.5731525087688770E-002
          24  -1.3650837596383039E-003
          25  0.18435513892653713     
          26   5.6563578098840486E-003
          27  -7.0386334545904511E-002
          28   1.4270094079374999E-003
          29 -0.24035193273116745     
          30  -7.1358194918640441E-002
          31   3.4431016364106524E-002
          32  -3.9629460162597706E-004
          33 -0.13463829527089441     
          34  -1.7110723400004298E-002
          35   5.5174670523797500E-002
          36  -1.1961478306458039E-003
          37  0.23731287321345723     
          38  -6.5890478459415022E-002
          39   4.4242973108591634E-002
          40  -3.7760918573549350E-004
          41  0.21277031054732221     
          42  -7.1064189585490559E-002
          43  -3.0602025592593451E-002
          44   1.0946156489541016E-003
          45  -6.4687578713546702E-003
          46   6.0812866826844350E-002
          47   3.1680794481619881E-002
          48  -5.0164114689105546E-002
          49  -2.2564493063605060E-002
          50   4.4979434339217167E-002
          51   3.7812531468965453E-002
          52  0.13191003567837106     
Sym=     4a
Ene=  -0.62902155299977536     
Spin= Alpha
Occup=     2.00000000
           1  0.16412571881221413     
           2   1.9284090445543713E-002
           3 -0.26412445283746300     
           4   6.9744585518047653E-003
           5  -7.9540361944459709E-002
           6   3.2539378321408689E-003
           7  0.14406078907907696     
           8  -3.1294215290412161E-003
           9  0.29255327165524542     
          10  -4.0844404861496639E-002
          11   9.3403036789751231E-002
          12  -1.7844833274487609E-003
          13 -0.20432142085670596     
          14   1.0538557335553464E-002
          15   5.1766737547860799E-002
          16  -1.1400063180503845E-003
          17  0.33021102467559604     
          18   1.1754440977778266E-002
          19  -6.8932751581298232E-002
          20   1.4245393707050737E-003
          21 -0.20764321780813985     
          22  -1.0290678383919550E-002
          23  -1.8024739685002438E-002
          24   4.0705841169654330E-004
          25  0.14210000879970996     
          26  -8.3469314278842799E-002
          27   1.2422959187253486E-002
          28   2.8934650981130987E-004
          29  -4.8763852794474925E-003
          30  -2.4427626078341951E-003
          31  0.11073790774164746     
          32  -2.5355912953781558E-003
          33  0.21765236239969951     
          34   8.7552467238993542E-002
          35   1.4279201707158672E-002
          36  -8.1702136066482377E-004
          37 -0.16214448662238110     
          38   4.7473887443471967E-002
          39   1.0898423074726906E-002
          40  -6.0304640573662332E-004
          41  -3.6799541927828014E-002
          42  -1.3498136990963168E-002
          43   6.0889551332602702E-002
          44  -1.1616654980572448E-003
          45   8.1178503528591184E-002
          46  -5.6573989707831951E-002
          47   4.5498342914083938E-002
          48  -1.2897059771839558E-002
          49   4.8186302068697943E-002
          50  -4.2639528549570316E-002
          51  -9.5881977486036354E-003
          52  0.12407354714224128     
Sym=     5a
Ene=  -0.62583802445948511     
Spin= Alpha
Occup=     2.00000000
           1   7.4689953916527468E-002
           2 -0.19096113851502586     
           3  0.19067143888334109     
           4  -3.7797008920399870E-003
           5 -0.27427562704038383     
           6   9.7032362511281309E-003
           7   7.0640796695139077E-002
           8  -1.6260050070108069E-003
           9   1.5069445402909347E-002
          10  0.10213708954557678     
          11   7.7914234477498845E-002
          12  -2.3776416321787800E-003
          13   3.4472944283409364E-002
          14 -0.22289431383597344     
          15  -3.7051550515760291E-002
          16   2.5442786456770865E-003
          17  -1.4899285993897842E-002
          18   1.5035994981232658E-002
          19   1.3730035289463368E-002
          20  -3.9088558182862515E-004
          21 -0.16649278387951069     
          22  0.12464196309608173     
          23   4.3482273726425805E-003
          24  -1.1186789752515524E-003
          25  0.27300600481530862     
          26   5.8358063610840456E-002
          27  -6.1725908050992241E-002
          28   8.7279841973820702E-004
          29  0.12832378474200234     
          30  -6.4451662473828577E-003
          31  -5.3923274112892917E-002
          32   1.3770377585007923E-003
          33   6.7496067880106784E-003
          34  -1.9877568185712891E-002
          35  -2.4164562950576150E-002
          36   6.9674007512984207E-004
          37  0.14421364851581053     
          38   5.1169165970209582E-002
          39  0.10131835679023470     
          40  -2.4366210741382172E-003
          41  0.32274735349394185     
          42  -6.1501587187978546E-002
          43   1.2148204972568966E-002
          44   1.2351465509882853E-004
          45   3.3046280762460160E-003
          46  -8.5067197175998185E-002
          47   7.0204373876779469E-002
          48   4.9606075284941417E-002
          49   2.4432479854821299E-003
          50   3.6087767095727107E-002
          51   8.4480006124549048E-002
          52 -0.14598761995703161     
Sym=     6a
Ene=  -0.61506560221571427     
Spin= Alpha
Occup=     2.00000000
           1  -7.0333779571451677E-002
           2   1.7630428199469739E-002
           3  0.13859431709738751     
           4  -3.8308786101110322E-003
           5  0.13189337901576956     
           6  -4.0969919821638418E-002
           7   5.0753161335576412E-002
           8  -6.4491965155700646E-004
           9  0.20620417223889301     
          10   8.6452510683153724E-002
          11  -1.6396274469967064E-002
          12  -1.3031281266293043E-004
          13   9.4614554321407002E-002
          14   6.8602975918092099E-002
          15  -6.5667142967154007E-002
          16   1.0886853662118909E-003
          17 -0.12291888560777417     
          18  0.15311558001606398     
          19   2.9134265326038341E-003
          20  -9.9181525831195066E-004
          21 -0.18307752455592849     
          22 -0.12525157539508094     
          23   2.0885873885454046E-002
          24   4.9822305892578559E-004
          25  0.20676628230072261     
          26  -6.5998679792987749E-002
          27   3.1783335348834358E-004
          28   4.7017685873506927E-004
          29 -0.20038951936174543     
          30  -5.5820196670184749E-003
          31 -0.12135205651149067     
          32   2.8197133079972741E-003
          33 -0.34381676831447755     
          34  -1.8371156969924966E-002
          35   3.4908242398777788E-002
          36  -7.5943306580029230E-004
          37 -0.29227443608886738     
          38   3.6724220168743611E-002
          39   2.6375837405988454E-002
          40  -8.4465477478271750E-004
          41  -4.9921406503267304E-002
          42  -3.4791496269845734E-002
          43  0.12250062314930284     
          44  -2.2612632652051030E-003
          45  -2.4189941035807815E-002
          46  -7.1079142845378571E-002
          47   6.4290594302958026E-002
          48  -4.9382412123924441E-002
          49  -9.9672848833127409E-002
          50  -9.7790094385878643E-002
          51  -1.6548726717255737E-002
          52  -6.2610587204459972E-002
Sym=     7a
Ene=  -0.59525221743425794     
Spin= Alpha
Occup=     2.00000000
           1  -7.0720481295147380E-002
           2  0.20941133440461515     
           3 -0.23131870755896411     
           4   5.0710639927574377E-003
           5   9.9749576982580565E-002
           6 -0.11366121893689189     
           7  -4.0465039307863028E-002
           8   1.9002665008129266E-003
           9 -0.18882382932367306     
          10   3.4938214749468045E-002
          11 -0.10791282175273786     
          12   2.2106510424249525E-003
          13   4.8024893834881045E-002
          14  0.14810447876634139     
          15  0.13221247808591494     
          16  -4.1558872401843304E-003
          17 -0.21070660549020551     
          18 -0.10127610866070580     
          19   1.9744456189700962E-004
          20   6.4770281023132810E-004
          21 -0.17967018716780514     
          22 -0.12129112737608769     
          23   1.0383279014773627E-002
          24   8.0623147524781433E-004
          25  0.10234785190707661     
          26  0.17575176835496903     
          27  -5.4200084645811025E-002
          28  -2.9025262056062450E-006
          29  0.13446657748361920     
          30   3.1277866845982716E-002
          31   9.2747369999230417E-002
          32  -2.4097500818856016E-003
          33  0.10963050161021594     
          34  -7.7336036819568688E-002
          35  -8.0226897955404886E-002
          36   2.3006492551798760E-003
          37 -0.14216029060065510     
          38   9.1932168964857480E-002
          39  0.12925056520363085     
          40  -3.2735649408109999E-003
          41  0.26357415448427352     
          42   3.2299828846105915E-003
          43   9.1998253870304497E-002
          44  -1.9010224488197637E-003
          45  -8.7577234037722579E-002
          46  -4.6972604710861877E-002
          47   2.7371941909464306E-002
          48   1.8246213895606100E-002
          49   4.0422456988694073E-002
          50  -6.1451735152928920E-002
          51  0.11166753706507448     
          52  0.17116964798687598     
Sym=     8a
Ene=  -0.58407912761000313     
Spin= Alpha
Occup=     2.00000000
           1  0.13728948336080268     
           2 -0.17131685423261608     
           3 -0.17226454735970129     
           4   5.7197717683117374E-003
           5   5.9573331908786336E-003
           6  0.15516136246947393     
           7   5.9716901701733924E-002
           8  -2.6911026944326931E-003
           9   8.6493318330627594E-002
          10  0.14126003824817032     
          11  -7.3443857636590767E-002
          12   6.6095223463471240E-004
          13 -0.11641874813921622     
          14 -0.16153266408604416     
          15  0.12382192924549343     
          16  -1.9332708794221414E-003
          17 -0.26775708405530019     
          18   4.0233963326065575E-002
          19  -3.5551779770320854E-002
          20   5.5773736419197474E-004
          21  0.13046142534084990     
          22  -2.5423868317531093E-003
          23   1.8495995720598721E-002
          24  -4.5090632707513927E-004
          25  0.10111422510374109     
          26 -0.10092605736685763     
          27   1.3529200988932411E-003
          28   6.9136492689532598E-004
          29  0.31122431417643703     
          30  -5.5357830534742962E-002
          31   3.1640165061151533E-002
          32  -3.8036836332416574E-004
          33   9.8428298677069419E-003
          34 -0.15211803443370761     
          35 -0.16121675112279804     
          36   4.5925009493835755E-003
          37 -0.11821188429667036     
          38 -0.12257076878867412     
          39  -8.2482452594893174E-002
          40   2.5258153974652706E-003
          41 -0.21542460095910232     
          42  -8.0671401563442532E-002
          43   6.8985070563833129E-002
          44  -8.3803412064003885E-004
          45 -0.11239692889570353     
          46   4.0367525910414037E-002
          47   2.4223590783848409E-002
          48  0.13653111494273898     
          49   6.6366732887702890E-003
          50  -6.6836407060157962E-002
          51 -0.11403541485200590     
          52   2.4500096652502773E-002
Sym=     9a
Ene=  -0.57795323413065169     
Spin= Alpha
Occup=     2.00000000
           1  0.11762166505346529     
           2  -7.6522728450678909E-002
           3 -0.18850800263677006     
           4   5.9653149699136106E-003
           5   6.8598528360310676E-002
           6  -6.4752475279453894E-002
           7  0.22299658702273387     
           8  -4.2220429266648339E-003
           9  0.15379865076258398     
          10 -0.11620461937851630     
          11 -0.12347317197377805     
          12   3.5014258355491983E-003
          13  -7.7823541267376577E-003
          14  -4.8082987923859094E-003
          15  0.14590088903843004     
          16  -3.1511685243312609E-003
          17 -0.10405098402516201     
          18   9.9323845538079478E-002
          19  -9.8831852267974654E-002
          20   1.6114640358829745E-003
          21 -0.21774084523091522     
          22  0.10614245680016848     
          23   8.0596649028397846E-002
          24  -2.4732056032276237E-003
          25 -0.25631362247663264     
          26  -6.8063552786132658E-002
          27  -6.6695709451937174E-002
          28   1.8569012392747907E-003
          29   2.9231300847048825E-002
          30   4.4418959584600154E-002
          31  -5.3491003949214085E-002
          32   9.8440126827758481E-004
          33 -0.19830816603265364     
          34   4.6438913460422893E-003
          35  -8.7770794151135631E-002
          36   1.9363153721637535E-003
          37  0.19771978297080792     
          38  0.11274001981335897     
          39   6.1309508057993720E-002
          40  -2.0534853106064432E-003
          41   3.0257624193617043E-002
          42   6.5965480047724429E-002
          43 -0.19803969046587225     
          44   3.5954735144438578E-003
          45  -8.4032256276580439E-002
          46 -0.14892517362987537     
          47 -0.14462818283120479     
          48  -4.3110861953111167E-003
          49 -0.11095572698647783     
          50  0.10152710749078096     
          51   1.4431005714755467E-002
          52   4.3018643475812260E-002
Sym=    10a
Ene=  -0.56174270933049775     
Spin= Alpha
Occup=     2.00000000
           1  0.17851893729936125     
           2 -0.28715800371644473     
           3  0.13840890765981076     
           4  -2.5669042879110588E-003
           5  0.18226027547506965     
           6  0.18362587130312258     
           7   5.2798717188419685E-002
           8  -2.7119857569831490E-003
           9  -1.6541308940641066E-002
          10  -4.9695940308823417E-003
          11 -0.20925732781792120     
          12   4.4204400330595346E-003
          13 -0.13692877558271396     
          14  -3.2003110181388399E-002
          15 -0.13721456553195571     
          16   3.2590519296043061E-003
          17  -4.9417412942553618E-003
          18 -0.16492372371908809     
          19   1.1125877879363066E-002
          20   6.4531621340728994E-004
          21  -3.5673869781460317E-002
          22 -0.11241963448378131     
          23  0.20337904235993801     
          24  -3.3880075611631626E-003
          25 -0.13534902362269169     
          26   3.8343272731778587E-002
          27 -0.12629702183077496     
          28   2.3973958444481773E-003
          29 -0.14616039712423107     
          30  -6.4226647609776172E-002
          31   6.6594235683573963E-002
          32  -1.1511738263204575E-003
          33  0.18491704073576443     
          34  -5.2235087586008323E-003
          35  0.12075704452270565     
          36  -2.7500158375578670E-003
          37 -0.12603997393216357     
          38  -3.7416102551984368E-002
          39  0.13973918835040616     
          40  -2.5458413727222425E-003
          41   4.5780433177793185E-002
          42  -2.2822727897788553E-002
          43  -1.9372184318300855E-002
          44   5.9662788648980102E-004
          45  -2.1233661965475270E-002
          46 -0.15931457040312211     
          47 -0.12638962031393064     
          48  -2.8942393405804630E-002
          49  0.12438631510902323     