      -----------------------------------------------------------      
     |                   =====================                   |     
     |                           x T B                           |     
     |                   =====================                   |     
     |                         S. Grimme                         |     
     |          Mulliken Center for Theoretical Chemistry        |     
     |                    University of Bonn                     |     
      -----------------------------------------------------------      

   * xtb version 6.7.1 (f02873e4dc4a3070f355eaf9db37e90a8a0123c4) compiled by '@Linux' on 2025/04/07

   xtb is free software: you can redistribute it and/or modify it under
   the terms of the GNU Lesser General Public License as published by
   the Free Software Foundation, either version 3 of the License, or
   (at your option) any later version.
   
   xtb is distributed in the hope that it will be useful,
   but WITHOUT ANY WARRANTY; without even the implied warranty of
   MERCHANTABILITY or FITNESS FOR A PARTICULAR PURPOSE.  See the
   GNU Lesser General Public License for more details.
   
   Cite this work as:
   * C. Bannwarth, E. Caldeweyher, S. Ehlert, A. Hansen, P. Pracht,
     J. Seibert, S. Spicher, S. Grimme, WIREs Comput. Mol. Sci., 2020, 11,
     e01493. DOI: 10.1002/wcms.1493
   
   for GFN2-xTB:
   * C. Bannwarth, S. Ehlert and S. Grimme., J. Chem. Theory Comput., 2019,
     15, 1652-1671. DOI: 10.1021/acs.jctc.8b01176
   for GFN1-xTB:
   * S. Grimme, C. Bannwarth, P. Shushkov, J. Chem. Theory Comput., 2017,
     13, 1989-2009. DOI: 10.1021/acs.jctc.7b00118
   for GFN0-xTB:
   * P. Pracht, E. Caldeweyher, S. Ehlert, S. Grimme, ChemRxiv, 2019, preprint.
     DOI: 10.26434/chemrxiv.8326202.v1
   for GFN-FF:
   * S. Spicher and S. Grimme, Angew. Chem. Int. Ed., 2020, 59, 15665-15673.
     DOI: 10.1002/anie.202004239
   
   for ALPB and GBSA implicit solvation:
   * S. Ehlert, M. Stahn, S. Spicher, S. Grimme, J. Chem. Theory Comput.,
     2021, 17, 4250-4261. DOI: 10.1021/acs.jctc.1c00471
   
   for ddCOSMO and CPCM-X implicit solvation:
   * M. Stahn, S. Ehlert, S. Grimme, J. Phys. Chem. A,
     2023, XX, XXXX-XXXX. DOI: 10.1021/acs.jpca.3c04382
   
   for DFT-D4:
   * E. Caldeweyher, C. Bannwarth and S. Grimme, J. Chem. Phys., 2017,
     147, 034112. DOI: 10.1063/1.4993215
   * E. Caldeweyher, S. Ehlert, A. Hansen, H. Neugebauer, S. Spicher,
     C. Bannwarth and S. Grimme, J. Chem. Phys., 2019, 150, 154122.
     DOI: 10.1063/1.5090222
   * E. Caldeweyher, J.-M. Mewes, S. Ehlert and S. Grimme, Phys. Chem. Chem. Phys.
     2020, 22, 8499-8512. DOI: 10.1039/D0CP00502A
   
   for sTDA-xTB:
   * S. Grimme and C. Bannwarth, J. Chem. Phys., 2016, 145, 054103.
     DOI: 10.1063/1.4959605
   
   in the mass-spec context:
   * V. Asgeirsson, C. Bauer and S. Grimme, Chem. Sci., 2017, 8, 4879.
     DOI: 10.1039/c7sc00601b
   * J. Koopman and S. Grimme, ACS Omega 2019, 4, 12, 15120-15133.
     DOI: 10.1021/acsomega.9b02011
   
   for metadynamics refer to:
   * S. Grimme, J. Chem. Theory Comput., 2019, 155, 2847-2862
     DOI: 10.1021/acs.jctc.9b00143
   
   for SPH calculations refer to:
   * S. Spicher and S. Grimme, J. Chem. Theory Comput., 2021, 17, 1701-1714
     DOI: 10.1021/acs.jctc.0c01306
   
   for ONIOM refer to:
   * C. Plett, A. Katbashev, S. Ehlert, S. Grimme, M. Bursch,
     Phys. Chem. Chem. Phys., 2023, 25, 17860-17868. DOI: 10.1039/D3CP02178E
   
   for DIPRO refer to:
   * J. Kohn, N. Gildemeister, S. Grimme, D. Fazzi, A. Hansen,
     J. Chem. Phys., 2023, just accepted.
   
   for PTB refer to:
   * S. Grimme, M. Mueller, A. Hansen, J. Chem. Phys., 2023, 158, 124111.
     DOI: 10.1063/5.0137838
   
   with help from (in alphabetical order)
   P. Atkinson, C. Bannwarth, F. Bohle, G. Brandenburg, E. Caldeweyher
   M. Checinski, S. Dohm, S. Ehlert, S. Ehrlich, I. Gerasimov, C. Hölzer
   A. Katbashev, J. Kohn, J. Koopman, C. Lavigne, S. Lehtola, F. März, M. Müller,
   F. Musil, H. Neugebauer, J. Pisarek, C. Plett, P. Pracht, F. Pultar,
   J. Seibert, P. Shushkov, S. Spicher, M. Stahn, M. Steiner, T. Strunk,
   J. Stückrath, T. Rose, and J. Unsleber
   
 * started run on 2025/05/04 at 13:30:21.762     
   ID    Z sym.   atoms
    1   17 Cl     1, 2

           -------------------------------------------------
          |                Calculation Setup                |
           -------------------------------------------------

          program call               : xtb /home/elcabris/Documents/scientific-computing/period-4/chemistry_2/chemistry-II/practica_iii/punto_1/opt/Cl2/xtbopt.xyz --hess
          coordinate file            : /home/elcabris/Documents/scientific-computing/period-4/chemistry_2/chemistry-II/practica_iii/punto_1/opt/Cl2/xtbopt.xyz
          omp threads                :                     8


           -------------------------------------------------
          |                 G F N 2 - x T B                 |
           -------------------------------------------------

        Reference                      10.1021/acs.jctc.8b01176
      * Hamiltonian:
        H0-scaling (s, p, d)           1.850000    2.230000    2.230000
        zeta-weighting                 0.500000
      * Dispersion:
        s8                             2.700000
        a1                             0.520000
        a2                             5.000000
        s9                             5.000000
      * Repulsion:
        kExp                           1.500000    1.000000
        rExp                           1.000000
      * Coulomb:
        alpha                          2.000000
        third order                    shell-resolved
        anisotropic                    true
        a3                             3.000000
        a5                             4.000000
        cn-shift                       1.200000
        cn-exp                         4.000000
        max-rad                        5.000000


          ...................................................
          :                      SETUP                      :
          :.................................................:
          :  # basis functions                  20          :
          :  # atomic orbitals                  18          :
          :  # shells                            6          :
          :  # electrons                        14          :
          :  max. iterations                   250          :
          :  Hamiltonian                  GFN2-xTB          :
          :  restarted?                      false          :
          :  GBSA solvation                  false          :
          :  PC potential                    false          :
          :  electronic temp.          300.0000000     K    :
          :  accuracy                    1.0000000          :
          :  -> integral cutoff          0.2500000E+02      :
          :  -> integral neglect         0.1000000E-07      :
          :  -> SCF convergence          0.1000000E-05 Eh   :
          :  -> wf. convergence          0.1000000E-03 e    :
          :  Broyden damping             0.4000000          :
          :  net charge                          0          :
          :  unpaired electrons                  0          :
          ...................................................

 iter      E             dE          RMSdq      gap      omega  full diag
   1     -9.0798426 -0.907984E+01  0.108E+01    3.52       0.0  T
   2     -9.0799138 -0.711620E-04  0.636E+00    3.46       1.0  T
   3     -9.0799667 -0.528907E-04  0.161E-01    3.39       1.0  T
   4     -9.0799701 -0.346003E-05  0.874E-02    3.38       1.0  T
   5     -9.0799716 -0.146001E-05  0.424E-03    3.38      16.7  T
   6     -9.0799716 -0.903952E-10  0.263E-04    3.38     269.3  T
   7     -9.0799716 -0.763833E-13  0.274E-08    3.38  100000.0  T

   *** convergence criteria satisfied after 7 iterations ***

         #    Occupation            Energy/Eh            Energy/eV
      -------------------------------------------------------------
         1        2.0000           -1.1129077             -30.2838
         2        2.0000           -1.0570568             -28.7640
         3        2.0000           -0.5448952             -14.8274
         4        2.0000           -0.4984453             -13.5634
         5        2.0000           -0.4984453             -13.5634
         6        2.0000           -0.4406901             -11.9918
         7        2.0000           -0.4406901             -11.9918 (HOMO)
         8                         -0.3164767              -8.6118 (LUMO)
         9                         -0.0247878              -0.6745
        10                         -0.0247878              -0.6745
        11                         -0.0213367              -0.5806
        12                         -0.0213367              -0.5806
       ...                                ...                  ...
        18                          0.0905141               2.4630
      -------------------------------------------------------------
                  HL-Gap            0.1242133 Eh            3.3800 eV
             Fermi-level           -0.3785834 Eh          -10.3018 eV

 SCC (total)                   0 d,  0 h,  0 min,  0.002 sec
 SCC setup                      ...        0 min,  0.000 sec (  4.156%)
 Dispersion                     ...        0 min,  0.000 sec (  4.327%)
 classical contributions        ...        0 min,  0.000 sec (  0.956%)
 integral evaluation            ...        0 min,  0.000 sec ( 16.318%)
 iterations                     ...        0 min,  0.001 sec ( 47.013%)
 molecular gradient             ...        0 min,  0.000 sec ( 21.257%)
 printout                       ...        0 min,  0.000 sec (  5.443%)

         :::::::::::::::::::::::::::::::::::::::::::::::::::::
         ::                     SUMMARY                     ::
         :::::::::::::::::::::::::::::::::::::::::::::::::::::
         :: total energy              -9.079328382279 Eh    ::
         :: gradient norm              0.000816548894 Eh/a0 ::
         :: HOMO-LUMO gap              3.380016143787 eV    ::
         ::.................................................::
         :: SCC energy                -9.079971594315 Eh    ::
         :: -> isotropic ES           -0.000001457496 Eh    ::
         :: -> anisotropic ES          0.000095841560 Eh    ::
         :: -> anisotropic XC          0.002405285891 Eh    ::
         :: -> dispersion             -0.000756312905 Eh    ::
         :: repulsion energy           0.000643212036 Eh    ::
         :: add. restraining           0.000000000000 Eh    ::
         :: total charge              -0.000000000000 e     ::
         :::::::::::::::::::::::::::::::::::::::::::::::::::::

           ------------------------------------------------- 
          |                Numerical Hessian                |
           ------------------------------------------------- 
step length          :   0.00500
SCC accuracy         :   0.30000
Hessian scale factor :   1.00000
frozen atoms in %    :   0.00000    0
RMS gradient         :   0.00082

writing file <hessian>, containing the non-mass-weighted Hessian matrix in atomic units (Eₕ/Bohr²).

 vibrational frequencies (cm⁻¹)
eigval :        0.00     0.00     0.00     0.00     0.00   508.05
           -------------------------------------------------
          |                Property Printout                |
           -------------------------------------------------

    * Orbital Energies and Occupations

         #    Occupation            Energy/Eh            Energy/eV
      -------------------------------------------------------------
         1        2.0000           -1.1129077             -30.2838
         2        2.0000           -1.0570568             -28.7640
         3        2.0000           -0.5448952             -14.8274
         4        2.0000           -0.4984453             -13.5634
         5        2.0000           -0.4984453             -13.5634
         6        2.0000           -0.4406901             -11.9918
         7        2.0000           -0.4406901             -11.9918 (HOMO)
         8                         -0.3164767              -8.6118 (LUMO)
         9                         -0.0247878              -0.6745
Molecule has the following symmetry elements: (i) (Cinf) (C2) 2*(sigma) 
It seems to be the Dinfh point group
        10                         -0.0247878              -0.6745
        11                         -0.0213367              -0.5806
        12                         -0.0213367              -0.5806
        13                         -0.0196590              -0.5349
        14                         -0.0196590              -0.5349
        15                         -0.0129232              -0.3517
        16                         -0.0129232              -0.3517
        17                         -0.0094552              -0.2573
        18                          0.0905141               2.4630
      -------------------------------------------------------------
                  HL-Gap            0.1242133 Eh            3.3800 eV
             Fermi-level           -0.3785834 Eh          -10.3018 eV

     #   Z          covCN         q      C6AA      α(0)
     1  17          0.975    -0.000    99.206    15.238
     2  17          0.975     0.000    99.206    15.238

 Mol. C6AA /au·bohr⁶  :        396.823494
 Mol. C8AA /au·bohr⁸  :      16556.889334
 Mol. α(0) /au        :         30.476066


Wiberg/Mayer (AO) data.
largest (>0.10) Wiberg bond orders for each atom

 ---------------------------------------------------------------------------
     #   Z sym  total        # sym  WBO       # sym  WBO       # sym  WBO
 ---------------------------------------------------------------------------
     1  17      1.057 --     2      1.057
     2  17      1.057 --     1      1.057
 ---------------------------------------------------------------------------

Topologies differ in total number of bonds
Writing topology from bond orders to xtbtopo.mol

molecular dipole:
                 x           y           z       tot (Debye)
 q only:       -0.000      -0.000      -0.000
   full:        0.000       0.000       0.000       0.000
molecular quadrupole (traceless):
                xx          xy          yy          xz          yz          zz
 q only:        0.000      -0.000       0.000      -0.000      -0.000      -0.000
  q+dip:        0.287       0.000       0.287      -0.000      -0.000      -0.574
   full:       -0.568       0.000      -0.568       0.000       0.000       1.136

           -------------------------------------------------
          |               Frequency Printout                |
           -------------------------------------------------
 vibrational frequencies (cm⁻¹)
eigval :        0.00     0.00     0.00     0.00     0.00   508.05
 reduced masses (amu)
    1:     35.45    2:     35.45    3:     35.45    4:     35.45    5:     35.45    6:     35.45
 IR intensities (km·mol⁻¹)
    1:      0.00    2:      0.00    3:      0.00    4:      0.00    5:      0.00    6:      0.00
 Raman intensities (Ä⁴*amu⁻¹)
    1:      0.00    2:      0.00    3:      0.00    4:      0.00    5:      0.00    6:      0.00
 output can be read by thermo (or use thermo option).
 writing <g98.out> molden fake output.
 recommended (thermochemical) frequency scaling factor: 1.0
           -------------------------------------------------
          |             Thermodynamic Functions             |
           -------------------------------------------------

din symmetry found (for desy threshold:  0.10E+00) used in thermo

          ...................................................
          :                      SETUP                      :
          :.................................................:
          :  # frequencies                           1      :
          :  # imaginary freq.                       0      :
          :  linear?                              true      :
          :  only rotor calc.                    false      :
          :  symmetry                              din      :
          :  rotational number                       2      :
          :  scaling factor                  1.0000000      :
          :  rotor cutoff                   50.0000000 cm⁻¹ :
          :  imag. cutoff                  -20.0000000 cm⁻¹ :
          :.................................................:

    mode    ω/cm⁻¹     T·S(HO)/kcal·mol⁻¹    T·S(FR)/kcal·mol⁻¹   T·S(vib)
   ------------------------------------------------------------------------
   ------------------------------------------------------------------------

   temp. (K)  partition function   enthalpy   heat capacity  entropy
                                   cal/mol     cal/K/mol   cal/K/mol   J/K/mol
 298.15  VIB   1.09                  136.934      1.232      0.638
         ROT   442.                  592.485      1.987     14.094
         INT   484.                  729.419      3.219     14.732
         TR   0.183E+26             1481.212      4.968     38.693
         TOT                        2210.6310     8.1873    53.4252   223.5311

       T/K    H(0)-H(T)+PV         H(T)/Eh          T*S/Eh         G(T)/Eh
   ------------------------------------------------------------------------
    298.15    0.352286E-02    0.468029E-02    0.253840E-01   -0.207038E-01
   ------------------------------------------------------------------------

         :::::::::::::::::::::::::::::::::::::::::::::::::::::
         ::                  THERMODYNAMIC                  ::
         :::::::::::::::::::::::::::::::::::::::::::::::::::::
         :: total free energy          -9.100032134743 Eh   ::
         ::.................................................::
         :: total energy               -9.079328382279 Eh   ::
         :: zero point energy           0.001157425045 Eh   ::
         :: G(RRHO) w/o ZPVE           -0.021861177509 Eh   ::
         :: G(RRHO) contrib.           -0.020703752464 Eh   ::
         :::::::::::::::::::::::::::::::::::::::::::::::::::::

           -------------------------------------------------
          | TOTAL ENERGY               -9.079328382279 Eh   |
          | TOTAL ENTHALPY             -9.074648092452 Eh   |
          | TOTAL FREE ENERGY          -9.100032134743 Eh   |
          | GRADIENT NORM               0.000816548901 Eh/α |
          | HOMO-LUMO GAP               3.380016143833 eV   |
           -------------------------------------------------

------------------------------------------------------------------------
 * finished run on 2025/05/04 at 13:30:21.775     
------------------------------------------------------------------------
 total:
 * wall-time:     0 d,  0 h,  0 min,  0.013 sec
 *  cpu-time:     0 d,  0 h,  0 min,  0.096 sec
 * ratio c/w:     7.291 speedup
 SCF:
 * wall-time:     0 d,  0 h,  0 min,  0.002 sec
 *  cpu-time:     0 d,  0 h,  0 min,  0.016 sec
 * ratio c/w:     7.849 speedup
 analytical hessian:
 * wall-time:     0 d,  0 h,  0 min,  0.004 sec
 *  cpu-time:     0 d,  0 h,  0 min,  0.034 sec
 * ratio c/w:     7.492 speedup

