19
 energy: -29.541848555154 gnorm: 0.068386581618 xtb: 6.7.1 (f02873e4dc4a3070f355eaf9db37e90a8a0123c4)
O           -1.68080000000000       -2.19340000000000       -0.00010000000000
C            0.01290000000000       -0.47110000000000        0.00020000000000
C            0.32320000000000        0.90980000000000        0.00020000000000
C           -1.33290000000000       -0.87250000000000        0.00010000000000
C           -0.72140000000000        1.84840000000000        0.00010000000000
C            1.05760000000000       -1.40970000000000        0.00010000000000
C            1.66900000000000        1.31130000000000        0.00000000000000
C           -2.35800000000000        0.07370000000000       -0.00010000000000
C           -2.05290000000000        1.43160000000000       -0.00020000000000
C            2.38910000000000       -0.99300000000000       -0.00010000000000
C            2.69420000000000        0.36490000000000       -0.00020000000000
H           -0.50630000000000        2.91490000000000        0.00000000000000
H            0.87980000000000       -2.48110000000000       -0.01610000000000
H            1.93090000000000        2.36730000000000       -0.00030000000000
H           -3.39770000000000       -0.24270000000000       -0.00030000000000
H           -2.85140000000000        2.16780000000000       -0.00030000000000
H            3.18810000000000       -1.72870000000000       -0.00390000000000
H            3.73090000000000        0.68870000000000       -0.00130000000000
H           -0.99020000000000       -2.72530000000000        0.42460000000000
19
 energy: -29.545135718200 gnorm: 0.026703350837 xtb: 6.7.1 (f02873e4dc4a3070f355eaf9db37e90a8a0123c4)
O           -1.71224359944841       -2.18864999713373        0.02417371150517
C            0.01511980650945       -0.47881617446155        0.00774980895608
C            0.32379933822839        0.90979418391893        0.00239158953441
C           -1.34454099317919       -0.87451072543751        0.01697391979976
C           -0.72358678010033        1.84757494955610       -0.00258364358815
C            1.07215061981677       -1.40839239126825        0.00304230663875
C            1.67280285717919        1.30713758413118        0.00133253184290
C           -2.34842154646525        0.07332884700446        0.00340377938514
C           -2.03520015788773        1.43167528005204       -0.00904675675330
C            2.38261623640138       -0.98732238803948       -0.00066960986688
C            2.68427274297026        0.37447568944224        0.00127631229621
H           -0.49970384425413        2.90577337983055       -0.00197200291590
H            0.88889498885036       -2.47518449097448       -0.01854062742251
H            1.92179801908653        2.35978848729457       -0.00079362414971
H           -3.38000053599796       -0.24749110491132        0.00173100996257
H           -2.83087830850072        2.16306054108006       -0.00733416216345
H            3.18002315825933       -1.71763832285595       -0.00647043325652
H            3.71605691759865        0.69788022770124       -0.00112154064657
H           -0.99885891906660       -2.73158357492911        0.38885743084200
19
 energy: -29.545975043182 gnorm: 0.013524168682 xtb: 6.7.1 (f02873e4dc4a3070f355eaf9db37e90a8a0123c4)
O           -1.72930379351433       -2.18347438982769        0.05278987002593
C            0.01478581117057       -0.48303723990060        0.01561897162198
C            0.32184883147419        0.90792739185092        0.00524141251508
C           -1.35364420995263       -0.87339751122151        0.03139614364387
C           -0.72651079294500        1.84873279136652       -0.00446440291145
C            1.07914936962350       -1.40862782997873        0.00845509059961
C            1.67492988027941        1.30262284531032        0.00221929815588
C           -2.34514591901077        0.07516632895335        0.00967549043084
C           -2.02725802567030        1.43609416511058       -0.01055067778885
C            2.37865325365899       -0.98784565644802        0.00065623728774
C            2.67988472488157        0.37955488071491        0.00271668198368
H           -0.48686721201246        2.90083266034867       -0.00914687403590
H            0.87973798608504       -2.47223665229385       -0.00904132957986
H            1.90747318732771        2.35683268524553       -0.00216989303666
H           -3.37179115363764       -0.25151003996353        0.00985328693247
H           -2.82511651265750        2.16229685328784       -0.02083847912105
H            3.17771983059119       -1.71352166675108       -0.00910509730715
H            3.71073668909109        0.69957908876742       -0.00055003113743
H           -0.97518194478263       -2.73508870457104        0.32964430172127
19
 energy: -29.546171613404 gnorm: 0.010053016204 xtb: 6.7.1 (f02873e4dc4a3070f355eaf9db37e90a8a0123c4)
O           -1.73421275881501       -2.18176525188009        0.06161581696118
C            0.01491954971618       -0.48489513894095        0.02301272921447
C            0.32074360410378        0.90517644096967        0.00961956812839
C           -1.35528571870313       -0.87366594090916        0.03625692765610
C           -0.72637129891965        1.84874611592673       -0.00398610842692
C            1.08211541682370       -1.40933364491420        0.01298839074921
C            1.67455262798298        1.30169286786212        0.00397686240027
C           -2.34561619399390        0.07638277537303        0.00862277198515
C           -2.02755003459873        1.43818942552562       -0.01255582182832
C            2.38102492953656       -0.98821043773487        0.00071387335478
C            2.68136395109250        0.38122625577022        0.00190965793646
H           -0.47871943619307        2.89940599761220       -0.01136520408649
H            0.87983309454253       -2.47296361127195       -0.00522134114311
H            1.89922016393282        2.35823102736403       -0.00244754654867
H           -3.37224697080916       -0.25138328500054        0.01114551462819
H           -2.82780436099716        2.16232043437524       -0.02551456086905
H            3.18277187376473       -1.71125732830978       -0.01276850680583
H            3.71288933560709        0.69960994348641       -0.00411793884021
H           -0.97752777407305       -2.73660664530376        0.31051491553440
19
 energy: -29.546395433091 gnorm: 0.008384122858 xtb: 6.7.1 (f02873e4dc4a3070f355eaf9db37e90a8a0123c4)
O           -1.73907694934082       -2.17876559858156        0.08104644566958
C            0.01404099939639       -0.48662554756656        0.03266358019843
C            0.31853690379133        0.90092171897089        0.01414351831923
C           -1.35654274061384       -0.87350486654676        0.04676256644378
C           -0.72535676973230        1.84911712873229       -0.00415351790244
C            1.08315750987365       -1.41064865644810        0.02133216468744
C            1.67282151436889        1.30092577771499        0.00501708889607
C           -2.34638838732031        0.07936639486622        0.01351992945032
C           -2.02898403163960        1.44178297685997       -0.01336705198745
C            2.38257515711632       -0.98902065015636        0.00220854136639
C            2.68248081263960        0.38257711971230        0.00011999464574
H           -0.46661626092489        2.89785651862654       -0.01579279689436
H            0.87804276410648       -2.47487488136876        0.01075554213749
H            1.88775354650359        2.36045651226137       -0.00345406705839
H           -3.37382248241905       -0.24880258497327        0.01405540300099
H           -2.83269360840537        2.16305244492810       -0.03502016970295
H            3.18838409578586       -1.70823968014787       -0.01498967973284
H            3.71549755318855        0.69765034765244       -0.01129912168438
H           -0.96970962637448       -2.74232447453587        0.25885163014734
19
 energy: -29.546503551147 gnorm: 0.003729899395 xtb: 6.7.1 (f02873e4dc4a3070f355eaf9db37e90a8a0123c4)
O           -1.74058214723304       -2.17741647236136        0.08923391627367
C            0.01382586972933       -0.48721327674500        0.03674276635918
C            0.31795074717796        0.89935843330949        0.01530289672886
C           -1.35554596138219       -0.87390893542719        0.04965246192570
C           -0.72425763488428        1.84884804334993       -0.00420233457527
C            1.08316164080250       -1.41105612692871        0.02689858312118
C            1.67181767175873        1.30150871867143        0.00378457354540
C           -2.34583545905129        0.08035419880106        0.01519222546285
C           -2.02932580142899        1.44219252560558       -0.01238450201689
C            2.38285545308379       -0.98835830421632        0.00402022798421
C            2.68241519097173        0.38324348870027       -0.00221879360552
H           -0.46399421478879        2.89720030340111       -0.01806976373512
H            0.88182826372351       -2.47625598279071        0.02272347800849
H            1.88551553549032        2.36131970752441       -0.00559142638951
H           -3.37404414933940       -0.24685721486444        0.01697151742022
H           -2.83360396673963        2.16285834969789       -0.03577732612280
H            3.19002553997179       -1.70628023135726       -0.01247048693101
H            3.71587995242498        0.69732681206911       -0.01618863698694
H           -0.97398653028701       -2.74596403643930        0.22878062353330
19
 energy: -29.546554194132 gnorm: 0.010818422352 xtb: 6.7.1 (f02873e4dc4a3070f355eaf9db37e90a8a0123c4)
O           -1.74408107984950       -2.17462450494813        0.10546045802349
C            0.01258766919362       -0.48717430756462        0.04035045254936
C            0.31730179330983        0.89914089436729        0.01301192981127
C           -1.35568308080854       -0.87345838932627        0.05769106216552
C           -0.72350408313121        1.84921338314317       -0.00763202116365
C            1.08161847594004       -1.41121591204289        0.03658409073589
C            1.67103340806960        1.30208782992793       -0.00140368014126
C           -2.34556034861583        0.08207682534739        0.02459499353872
C           -2.02915719170143        1.44284986121640       -0.00973647846122
C            2.38092420782701       -0.98789586811026        0.01039658613423
C            2.68085272628882        0.38326289738492       -0.00458194854498
H           -0.46392440502327        2.89723939473874       -0.02623964103292
H            0.88467354341831       -2.47733719744262        0.04606748979102
H            1.88599707400537        2.36112958021089       -0.01380560426553
H           -3.37417176803352       -0.24393837206746        0.02968817054093
H           -2.83275589602671        2.16370415539079       -0.03410846966478
H            3.18832312232978       -1.70546018765489        0.00021561531814
H            3.71449106852992        0.69635030519982       -0.02044295441094
H           -0.96486523572233       -2.75505038777022        0.15628994907670
19
 energy: -29.546633298017 gnorm: 0.002234196307 xtb: 6.7.1 (f02873e4dc4a3070f355eaf9db37e90a8a0123c4)
O           -1.74096802605507       -2.17587618249324        0.09780947122524
C            0.01303895042483       -0.48617507828837        0.03650201559645
C            0.31849200953076        0.90137421036993        0.00983960455386
C           -1.35473074815294       -0.87354284831115        0.05393540808699
C           -0.72388324935225        1.84903480270914       -0.00808947735169
C            1.08102522422511       -1.41048194685334        0.03563108066198
C            1.67195125340724        1.30265204639391       -0.00385403198012
C           -2.34540954551571        0.08057616924611        0.02512229205915
C           -2.02886726548129        1.44097376607184       -0.00717677937992
C            2.38056171881991       -0.98745867540166        0.01232047005325
C            2.68076176579031        0.38257623845755       -0.00403329528947
H           -0.47022245842272        2.89827296664698       -0.02568399709666
H            0.88605761731532       -2.47648323040265        0.04646389458382
H            1.89195632996920        2.36032086929009       -0.01768262765308
H           -3.37367876293853       -0.24533903107159        0.03113876805617
H           -2.83067835852668        2.16359525954833       -0.02767083735657
H            3.18595161634775       -1.70713292083837        0.00561256417590
H            3.71371751363808        0.69743549494698       -0.01925782630515
H           -0.97097558502333       -2.75342191002046        0.16147330335982
19
 energy: -29.546655348467 gnorm: 0.001418706661 xtb: 6.7.1 (f02873e4dc4a3070f355eaf9db37e90a8a0123c4)
O           -1.74059077331430       -2.17582773777195        0.09691459847994
C            0.01300043653696       -0.48564458698428        0.03544788339476
C            0.31902405484501        0.90264618820975        0.00683014981124
C           -1.35487705270300       -0.87328402935653        0.05415221698175
C           -0.72423418772549        1.84903526701901       -0.00976055385057
C            1.08067565624510       -1.40995967821264        0.03885638403099
C            1.67243101083501        1.30265632330197       -0.00814151455314
C           -2.34592127377442        0.08022661259151        0.02938155557669
C           -2.02891917807484        1.44034215036845       -0.00358104974097
C            2.38047546993321       -0.98740603109457        0.01687051474377
C            2.68084642941477        0.38202362878911       -0.00427277024589
H           -0.47363710580353        2.89901618676770       -0.02984911851779
H            0.88660914930659       -2.47586083054125        0.05426879452321
H            1.89503808683326        2.35971266114721       -0.02505428304305
H           -3.37394728714175       -0.24571900309236        0.03842494182670
H           -2.82958454939945        2.16425403123829       -0.02166090743350
H            3.18465923968010       -1.70844394938554        0.01541565923555
H            3.71340866254213        0.69798931309152       -0.01886722339399
H           -0.97035678823535       -2.75485651608540        0.13702472217426
19
 energy: -29.546667016611 gnorm: 0.001911222616 xtb: 6.7.1 (f02873e4dc4a3070f355eaf9db37e90a8a0123c4)
O           -1.74020934341698       -2.17610016971383        0.09251823059707
C            0.01312023743163       -0.48514199598394        0.03379196367977
C            0.31958237970775        0.90388296915440        0.00143015367271
C           -1.35566578372985       -0.87278076552769        0.05411420854331
C           -0.72501924254740        1.84898082306360       -0.01325721224241
C            1.08078100149423       -1.40912604608900        0.04434287114250
C            1.67298266071838        1.30189360116570       -0.01594012795768
C           -2.34717745233544        0.07993842049848        0.03712716752953
C           -2.02929866543345        1.44014005714870        0.00288143019136
C            2.38125774118585       -0.98772408097056        0.02550977743398
C            2.68165020321816        0.38117970229115       -0.00400607914264
H           -0.47667255966624        2.89976513649382       -0.03772217647820
H            0.88535502611094       -2.47455395691913        0.06685961126487
H            1.89729385881435        2.35880814785005       -0.03930381402280
H           -3.37474865812179       -0.24664570402402        0.05206036190358
H           -2.82899435756335        2.16554820916039       -0.00964346505233
H            3.18401173057149       -1.71044402429808        0.03338437090944
H            3.71373348074088        0.69886231062579       -0.01748854776785
H           -0.96788225717915       -2.75558263392584        0.09574127579573
19
 energy: -29.546670945357 gnorm: 0.000946624158 xtb: 6.7.1 (f02873e4dc4a3070f355eaf9db37e90a8a0123c4)
O           -1.74002546485719       -2.17658495040185        0.08908138762039
C            0.01327102630779       -0.48540685000634        0.03338133726534
C            0.31939567249712        0.90329018764573        0.00116332990108
C           -1.35566699433722       -0.87289442515910        0.05299295769131
C           -0.72500270130391        1.84890282085519       -0.01313975916731
C            1.08108336894317       -1.40923536078363        0.04400477616292
C            1.67275804180373        1.30163625655996       -0.01623075178326
C           -2.34700369088689        0.07999025883071        0.03689747866691
C           -2.02927087959910        1.44046006889474        0.00345680593069
C            2.38154375078601       -0.98775995176684        0.02568897079018
C            2.68175800801514        0.38131729170490       -0.00391103846563
H           -0.47516848129511        2.89934862257032       -0.03758502694602
H            0.88462635157535       -2.47455121658531        0.06583395959764
H            1.89583560817434        2.35884362268191       -0.03975276406456
H           -3.37459607168473       -0.24670876689687        0.05172093590376
H           -2.82954141632788        2.16531978932145       -0.00836585295141
H            3.18468004741309       -1.70997586570114        0.03376119580436
H            3.71392490282878        0.69882826223622       -0.01713361713264
H           -0.96850107805244       -2.75391979400006        0.10053567517622
