3
 energy: -5.070544351072 gnorm: 0.000185027010 xtb: 6.7.1 (f02873e4dc4a3070f355eaf9db37e90a8a0123c4)
O            0.00000000000000        0.00000000009149        0.10077199487927
H            0.00000000000000        0.77250895245772       -0.46780199740389
H            0.00000000000000       -0.77250895254921       -0.46780199747537
