3
 energy: -10.303491485040 gnorm: 0.101825016936 xtb: 6.7.1 (f02873e4dc4a3070f355eaf9db37e90a8a0123c4)
C            2.50000000000000        2.50000000000000        2.50000000000000
O            2.50000000000000        2.50000000000000        3.67865800000000
O            2.50000000000000        2.50000000000000        1.32134200000000
3
 energy: -10.308440628076 gnorm: 0.005374334469 xtb: 6.7.1 (f02873e4dc4a3070f355eaf9db37e90a8a0123c4)
C            2.49999999992423        2.49999999992423        2.49999999676543
O            2.50000000003789        2.50000000003789        3.64202443923891
O            2.50000000003789        2.50000000003789        1.35797556399566
3
 energy: -10.308452096338 gnorm: 0.000688156919 xtb: 6.7.1 (f02873e4dc4a3070f355eaf9db37e90a8a0123c4)
C            2.49999999986449        2.49999999986449        2.50000000018585
O            2.50000000006776        2.50000000006776        3.64386098132411
O            2.50000000006776        2.50000000006776        1.35613901849004
3
 energy: -10.308452242563 gnorm: 0.000338571557 xtb: 6.7.1 (f02873e4dc4a3070f355eaf9db37e90a8a0123c4)
C            2.49999999979525        2.49999999979525        2.49999999988405
O            2.50000000010238        2.50000000010238        3.64354828078941
O            2.50000000010238        2.50000000010238        1.35645171932654
