
  ___ ___ ___ _ _ _  
 |   |   |_  | | | | 
 | | | | | . | | | | 
 |__ |  _|___|_____|  25.1.0
 |___|_|             

User:   elcabris@archlinux
Date:   Sat Apr 12 20:22:43 2025
Arch:   x86_64
Pid:    5582
CWD:    /home/elcabris/Documents/scientific-computing/period-4/chemistry_2/chemistry-II/practica_i/punto_2/b
Python: 3.9.21
gpaw:   /home/elcabris/Documents/scientific-computing/period-4/chemistry_2/chemistry-2-venv/lib/python3.9/site-packages/gpaw
_gpaw:  /home/elcabris/Documents/scientific-computing/period-4/chemistry_2/chemistry-2-venv/lib/python3.9/site-packages/
        _gpaw.cpython-39-x86_64-linux-gnu.so
ase:    /home/elcabris/Documents/scientific-computing/period-4/chemistry_2/chemistry-2-venv/lib/python3.9/site-packages/ase (version 3.24.0)
numpy:  /home/elcabris/Documents/scientific-computing/period-4/chemistry_2/chemistry-2-venv/lib/python3.9/site-packages/numpy (version 2.0.2)
scipy:  /home/elcabris/Documents/scientific-computing/period-4/chemistry_2/chemistry-2-venv/lib/python3.9/site-packages/scipy (version 1.13.1)
libxc:  7.0.0
units:  Angstrom and eV
cores: 1
OpenMP: False
OMP_NUM_THREADS: 1

Input parameters:
  basis: dzp
  mode: lcao
  xc: PBE

System changes: positions, numbers, cell, pbc, initial_charges, initial_magmoms 

Initialize ...

species:
  H:
    name: Hydrogen
    id: d65de229564ff8ea4db303e23b6d1ecf
    Z: 1.0
    valence: 1
    core: 0
    charge: 0.0
    file: /home/elcabris/gpaw-setups/gpaw-setups-24.11.0/H.PBE.gz
    compensation charges: {type: gauss,
                           rc: 0.15,
                           lmax: 2}
    cutoffs: {filter: 0.85,
              core: 0.53}
    projectors:
      #              energy  rcut
      - 1s(1.00)    -6.494   0.476
      -  s          20.717   0.476
      -  p           0.000   0.476
  
    # LCAO basis set for H:
    #   Name: dzp
    #   File: /home/elcabris/gpaw-setups/gpaw-setups-24.11.0/H.dzp.basis.gz
    #   Number of radial functions: 3
    #   Number of spherical harmonics: 5
    #     l=0, rc=6.4219 Bohr: 1s-sz confined orbital
    #     l=0, rc=3.6094 Bohr: 1s-dz split-valence wave
    #     l=1, rc=6.4219 Bohr: p-type Gaussian polarization
    #   Number of RI-basis functions 0

Reference energy: -24.980324  # eV

Spin-paired calculation

Convergence criteria:
 Maximum [total energy] change in last 3 cyles: 0.0005 eV / valence electron
 Maximum integral of absolute [dens]ity change: 0.0001 electrons / valence electron
 Maximum integral of absolute [eigenst]ate change: 4e-08 eV^2 / valence electron
 Maximum number of scf [iter]ations: 333
 (Square brackets indicate name in SCF output, whereas a 'c' in
 the SCF output indicates the quantity has converged.)

Symmetries present (total): 16

  ( 1  0  0)  ( 1  0  0)  ( 1  0  0)  ( 1  0  0)  ( 0  1  0)  ( 0  1  0)
  ( 0  1  0)  ( 0  1  0)  ( 0 -1  0)  ( 0 -1  0)  ( 1  0  0)  ( 1  0  0)
  ( 0  0  1)  ( 0  0 -1)  ( 0  0  1)  ( 0  0 -1)  ( 0  0  1)  ( 0  0 -1)

  ( 0  1  0)  ( 0  1  0)  ( 0 -1  0)  ( 0 -1  0)  ( 0 -1  0)  ( 0 -1  0)
  (-1  0  0)  (-1  0  0)  ( 1  0  0)  ( 1  0  0)  (-1  0  0)  (-1  0  0)
  ( 0  0  1)  ( 0  0 -1)  ( 0  0  1)  ( 0  0 -1)  ( 0  0  1)  ( 0  0 -1)

  (-1  0  0)  (-1  0  0)  (-1  0  0)  (-1  0  0)
  ( 0  1  0)  ( 0  1  0)  ( 0 -1  0)  ( 0 -1  0)
  ( 0  0  1)  ( 0  0 -1)  ( 0  0  1)  ( 0  0 -1)

1 k-point (Gamma)
1 k-point in the irreducible part of the Brillouin zone
       k-points in crystal coordinates                weights
   0:     0.00000000    0.00000000    0.00000000          1/1

Wave functions: LCAO
  Diagonalizer: Serial LAPACK
  Atomic Correction: dense with blas
  Data-type: float
 

Occupation numbers: # Zero width 

Eigensolver
   LCAO using direct dense diagonalizer 

Densities:
  Coarse grid: 40*40*40 grid
  Fine grid: 80*80*80 grid
  Total Charge: 0.000000 

Density mixing:
  Method: separate
  Backend: pulay
  Linear mixing parameter: 0.25
  old densities: 3
  Damping of long wavelength oscillations: 1  # (no daming) 

Hamiltonian:
  XC and Coulomb potentials evaluated on a 80*80*80 grid
  Using the PBE Exchange-Correlation functional
  Interpolation: tri-quintic (5. degree polynomial)
  Poisson solver: FastPoissonSolver using
    Stencil: 6*3+1=19 point O(h^6) finite-difference Laplacian
    FFT axes: []
    FST axes: [np.int64(0), np.int64(1), np.int64(2)]
 

XC parameters: PBE with 2 nearest neighbor stencil

Memory estimate:
  Process memory now: 251.02 MiB
  Calculator: 24.73 MiB
    Density: 15.40 MiB
      Arrays: 12.19 MiB
      Localized functions: 0.50 MiB
      Mixer: 2.72 MiB
    Hamiltonian: 8.01 MiB
      Arrays: 7.98 MiB
      XC: 0.00 MiB
      Poisson: 0.00 MiB
      vbar: 0.04 MiB
    Wavefunctions: 1.31 MiB
      C [qnM]: 0.00 MiB
      S, T [2 x qmm]: 0.00 MiB
      P [aqMi]: 0.00 MiB
      BasisFunctions: 1.31 MiB
      Eigensolver: 0.00 MiB

Total number of cores used: 1

Number of atoms: 2
Number of atomic orbitals: 10
Number of bands in calculation: 2
Number of valence electrons: 2
Bands to converge: occupied

... initialized

Initializing position-dependent things.

Density initialized from atomic densities
      .-------------------.  
     /|                   |  
    / |                   |  
   /  |                   |  
  /   |                   |  
 *    |                   |  
 |    |                   |  
 |    |       H           |  
 |    |       H           |  
 |    |                   |  
 |    .-------------------.  
 |   /                   /   
 |  /                   /    
 | /                   /     
 |/                   /      
 *-------------------*       

Positions:
   0 H      4.000000    4.000000    4.368583    ( 0.0000,  0.0000,  0.0000)
   1 H      4.000000    4.000000    3.631417    ( 0.0000,  0.0000,  0.0000)

Unit cell:
           periodic     x           y           z      points  spacing
  1. axis:    no     8.000000    0.000000    0.000000    40     0.2000
  2. axis:    no     0.000000    8.000000    0.000000    40     0.2000
  3. axis:    no     0.000000    0.000000    8.000000    40     0.2000

  Lengths:   8.000000   8.000000   8.000000
  Angles:   90.000000  90.000000  90.000000

Effective grid spacing dv^(1/3) = 0.2000

     iter     time        total  log10-change:
                         energy   eigst   dens
iter:   1 20:22:44    -6.855115        c
iter:   2 20:22:44    -6.655160        c -0.48
iter:   3 20:22:44    -6.453573        c -0.63
iter:   4 20:22:45    -6.459047        c -1.94
iter:   5 20:22:45    -6.453519        c -1.43
iter:   6 20:22:45    -6.453518        c -3.53
iter:   7 20:22:45    -6.453518c       c -4.60c

Converged after 7 iterations.

Dipole moment: (0.000000, 0.000000, 0.000000) |e|*Ang

Energy contributions relative to reference atoms: (reference = -24.980324)

Kinetic:         +5.132706
Potential:       -6.621200
External:        +0.000000
XC:              -4.938776
Entropy (-ST):   +0.000000
Local:           -0.026248
SIC:             +0.000000
--------------------------
Free energy:     -6.453518
Extrapolated:    -6.453518

 Band  Eigenvalues  Occupancy
    0    -10.36288    2.00000
    1      2.29787    0.00000

Fermi level: -4.03251

Gap: 12.661 eV
Transition (v -> c):
  (s=0, k=0, n=0, [0.00, 0.00, 0.00]) -> (s=0, k=0, n=1, [0.00, 0.00, 0.00])
No difference between direct/indirect transitions

Forces in eV/Ang:
  0 H     0.00000    0.00000    1.54191
  1 H     0.00000    0.00000   -1.54191

System changes: positions 

Initializing position-dependent things.

Density initialized from wave functions
      .-------------------.  
     /|                   |  
    / |                   |  
   /  |                   |  
  /   |                   |  
 *    |                   |  
 |    |                   |  
 |    |       H           |  
 |    |       H           |  
 |    |                   |  
 |    .-------------------.  
 |   /                   /   
 |  /                   /    
 | /                   /     
 |/                   /      
 *-------------------*       

Positions:
   0 H      4.000000    4.000000    4.390610    ( 0.0000,  0.0000,  0.0000)
   1 H      4.000000    4.000000    3.609390    ( 0.0000,  0.0000,  0.0000)

Unit cell:
           periodic     x           y           z      points  spacing
  1. axis:    no     8.000000    0.000000    0.000000    40     0.2000
  2. axis:    no     0.000000    8.000000    0.000000    40     0.2000
  3. axis:    no     0.000000    0.000000    8.000000    40     0.2000

  Lengths:   8.000000   8.000000   8.000000
  Angles:   90.000000  90.000000  90.000000

Effective grid spacing dv^(1/3) = 0.2000

     iter     time        total  log10-change:
                         energy   eigst   dens
iter:   1 20:22:46    -6.484465        c
iter:   2 20:22:46    -6.483777        c -1.73
iter:   3 20:22:46    -6.483191        c -1.90
iter:   4 20:22:46    -6.483194c       c -3.78
iter:   5 20:22:47    -6.483194c       c -4.32c

Converged after 5 iterations.

Dipole moment: (0.000000, 0.000000, -0.000000) |e|*Ang

Energy contributions relative to reference atoms: (reference = -24.980324)

Kinetic:         +4.285714
Potential:       -6.121536
External:        +0.000000
XC:              -4.623035
Entropy (-ST):   +0.000000
Local:           -0.024337
SIC:             +0.000000
--------------------------
Free energy:     -6.483194
Extrapolated:    -6.483194

 Band  Eigenvalues  Occupancy
    0    -10.13056    2.00000
    1      1.91540    0.00000

Fermi level: -4.10758

Gap: 12.046 eV
Transition (v -> c):
  (s=0, k=0, n=0, [0.00, 0.00, 0.00]) -> (s=0, k=0, n=1, [0.00, 0.00, 0.00])
No difference between direct/indirect transitions

Forces in eV/Ang:
  0 H     0.00000    0.00000   -0.12045
  1 H    -0.00000   -0.00000    0.12045

System changes: positions 

Initializing position-dependent things.

Density initialized from wave functions
      .-------------------.  
     /|                   |  
    / |                   |  
   /  |                   |  
  /   |                   |  
 *    |                   |  
 |    |                   |  
 |    |       H           |  
 |    |       H           |  
 |    |                   |  
 |    .-------------------.  
 |   /                   /   
 |  /                   /    
 | /                   /     
 |/                   /      
 *-------------------*       

Positions:
   0 H      4.000000    4.000000    4.389014    ( 0.0000,  0.0000,  0.0000)
   1 H      4.000000    4.000000    3.610986    ( 0.0000,  0.0000,  0.0000)

Unit cell:
           periodic     x           y           z      points  spacing
  1. axis:    no     8.000000    0.000000    0.000000    40     0.2000
  2. axis:    no     0.000000    8.000000    0.000000    40     0.2000
  3. axis:    no     0.000000    0.000000    8.000000    40     0.2000

  Lengths:   8.000000   8.000000   8.000000
  Angles:   90.000000  90.000000  90.000000

Effective grid spacing dv^(1/3) = 0.2000

     iter     time        total  log10-change:
                         energy   eigst   dens
iter:   1 20:22:47    -6.483412        c
iter:   2 20:22:47    -6.483409        c -2.89
iter:   3 20:22:47    -6.483406c       c -3.05
iter:   4 20:22:48    -6.483406c       c -5.08c

Converged after 4 iterations.

Dipole moment: (0.000000, 0.000000, 0.000000) |e|*Ang

Energy contributions relative to reference atoms: (reference = -24.980324)

Kinetic:         +4.345763
Potential:       -6.158644
External:        +0.000000
XC:              -4.645481
Entropy (-ST):   +0.000000
Local:           -0.025044
SIC:             +0.000000
--------------------------
Free energy:     -6.483406
Extrapolated:    -6.483406

 Band  Eigenvalues  Occupancy
    0    -10.14683    2.00000
    1      1.94283    0.00000

Fermi level: -4.10200

Gap: 12.090 eV
Transition (v -> c):
  (s=0, k=0, n=0, [0.00, 0.00, 0.00]) -> (s=0, k=0, n=1, [0.00, 0.00, 0.00])
No difference between direct/indirect transitions

Forces in eV/Ang:
  0 H     0.00000    0.00000   -0.01215
  1 H     0.00000   -0.00000    0.01215

Timing:                                       incl.     excl.
--------------------------------------------------------------------
Basic WFS set positions:                      0.002     0.002   0.0% |
 Redistribute:                                0.000     0.000   0.0% |
Basis functions set positions:                0.007     0.007   0.0% |
Forces:                                       0.051     0.008   0.0% |
 LCAO forces:                                 0.043     0.000   0.0% |
  Atomic Hamiltonian force:                   0.001     0.001   0.0% |
  Initial:                                    0.000     0.000   0.0% |
   Get density matrix:                        0.000     0.000   0.0% |
  Paw correction:                             0.000     0.000   0.0% |
  Potential:                                  0.036     0.036   0.0% |
  TCI derivative:                             0.005     0.005   0.0% |
  Wait for sum:                               0.000     0.000   0.0% |
LCAO WFS Initialize:                          0.625     0.010   0.0% |
 Density initialized from wave functions:     0.054     0.012   0.0% |
  Calculate density matrix:                   0.000     0.000   0.0% |
  Construct density:                          0.003     0.003   0.0% |
  Symmetrize density:                         0.040     0.040   0.0% |
 Hamiltonian:                                 0.560     0.000   0.0% |
  Atomic:                                     0.052     0.001   0.0% |
   XC Correction:                             0.051     0.051   0.0% |
  Calculate atomic Hamiltonians:              0.002     0.002   0.0% |
  Communicate:                                0.000     0.000   0.0% |
  Hartree integrate/restrict:                 0.017     0.017   0.0% |
  Initialize Hamiltonian:                     0.001     0.001   0.0% |
  Poisson:                                    0.136     0.008   0.0% |
   Communicate from 1D:                       0.013     0.013   0.0% |
   Communicate from 2D:                       0.012     0.012   0.0% |
   Communicate to 1D:                         0.015     0.015   0.0% |
   Communicate to 2D:                         0.012     0.012   0.0% |
   FFT 1D:                                    0.022     0.022   0.0% |
   FFT 2D:                                    0.053     0.053   0.0% |
  XC 3D grid:                                 0.345     0.345   0.2% |
  vbar:                                       0.007     0.007   0.0% |
P tci:                                        0.003     0.003   0.0% |
Redistribute:                                 0.000     0.000   0.0% |
SCF-cycle:                                    3.340     0.005   0.0% |
 Density:                                     0.735     0.000   0.0% |
  Atomic density matrices:                    0.007     0.007   0.0% |
  Mix:                                        0.443     0.443   0.3% |
  Multipole moments:                          0.001     0.001   0.0% |
  Normalize:                                  0.001     0.001   0.0% |
  Pseudo density:                             0.283     0.002   0.0% |
   Calculate density matrix:                  0.000     0.000   0.0% |
   Construct density:                         0.017     0.017   0.0% |
   Symmetrize density:                        0.263     0.263   0.2% |
 Hamiltonian:                                 2.571     0.001   0.0% |
  Atomic:                                     0.222     0.006   0.0% |
   XC Correction:                             0.216     0.216   0.1% |
  Calculate atomic Hamiltonians:              0.006     0.006   0.0% |
  Communicate:                                0.000     0.000   0.0% |
  Hartree integrate/restrict:                 0.067     0.067   0.0% |
  Poisson:                                    0.617     0.035   0.0% |
   Communicate from 1D:                       0.057     0.057   0.0% |
   Communicate from 2D:                       0.064     0.064   0.0% |
   Communicate to 1D:                         0.069     0.069   0.0% |
   Communicate to 2D:                         0.059     0.059   0.0% |
   FFT 1D:                                    0.090     0.090   0.1% |
   FFT 2D:                                    0.243     0.243   0.2% |
  XC 3D grid:                                 1.624     1.624   1.1% |
  vbar:                                       0.034     0.034   0.0% |
 LCAO eigensolver:                            0.028     0.001   0.0% |
  Calculate projections:                      0.000     0.000   0.0% |
  DenseAtomicCorrection:                      0.002     0.002   0.0% |
  Distribute overlap matrix:                  0.000     0.000   0.0% |
  Orbital Layouts:                            0.002     0.002   0.0% |
  Potential matrix:                           0.022     0.022   0.0% |
ST tci:                                       0.001     0.001   0.0% |
Set symmetry:                                 0.003     0.003   0.0% |
TCI: Evaluate splines:                        0.008     0.008   0.0% |
mktci:                                        0.002     0.002   0.0% |
Other:                                      149.465   149.465  97.4% |--------------------------------------|
--------------------------------------------------------------------
Total:                                                153.506 100.0%

Memory usage: 349.31 MiB
Date: Sat Apr 12 20:25:17 2025
