2
 energy: -0.982686124818 gnorm: 0.000231799595 xtb: 6.7.1 (f02873e4dc4a3070f355eaf9db37e90a8a0123c4)
H            2.50000000000000        2.50000000000000        2.88851048995663
H            2.50000000000000        2.50000000000000        2.11148951004337
