2
 energy: -0.981865468878 gnorm: 0.032545447131 xtb: 6.7.1 (f02873e4dc4a3070f355eaf9db37e90a8a0123c4)
H            2.50000000000000        2.50000000000000        2.86858300000000
H            2.50000000000000        2.50000000000000        2.13141700000000
2
 energy: -0.982672309369 gnorm: 0.003906022269 xtb: 6.7.1 (f02873e4dc4a3070f355eaf9db37e90a8a0123c4)
H            2.50000000000000        2.50000000000000        2.88567675022677
H            2.50000000000000        2.50000000000000        2.11432324977323
2
 energy: -0.982685951480 gnorm: 0.000490750679 xtb: 6.7.1 (f02873e4dc4a3070f355eaf9db37e90a8a0123c4)
H            2.50000000000000        2.50000000000000        2.88800801138258
H            2.50000000000000        2.50000000000000        2.11199198861742
2
 energy: -0.982686124818 gnorm: 0.000231799595 xtb: 6.7.1 (f02873e4dc4a3070f355eaf9db37e90a8a0123c4)
H            2.50000000000000        2.50000000000000        2.88851048995663
H            2.50000000000000        2.50000000000000        2.11148951004337
