      -----------------------------------------------------------      
     |                   =====================                   |     
     |                           x T B                           |     
     |                   =====================                   |     
     |                         S. Grimme                         |     
     |          Mulliken Center for Theoretical Chemistry        |     
     |                    University of Bonn                     |     
      -----------------------------------------------------------      

   * xtb version 6.7.1 (f02873e4dc4a3070f355eaf9db37e90a8a0123c4) compiled by '@Linux' on 2025/04/07

   xtb is free software: you can redistribute it and/or modify it under
   the terms of the GNU Lesser General Public License as published by
   the Free Software Foundation, either version 3 of the License, or
   (at your option) any later version.
   
   xtb is distributed in the hope that it will be useful,
   but WITHOUT ANY WARRANTY; without even the implied warranty of
   MERCHANTABILITY or FITNESS FOR A PARTICULAR PURPOSE.  See the
   GNU Lesser General Public License for more details.
   
   Cite this work as:
   * C. Bannwarth, E. Caldeweyher, S. Ehlert, A. Hansen, P. Pracht,
     J. Seibert, S. Spicher, S. Grimme, WIREs Comput. Mol. Sci., 2020, 11,
     e01493. DOI: 10.1002/wcms.1493
   
   for GFN2-xTB:
   * C. Bannwarth, S. Ehlert and S. Grimme., J. Chem. Theory Comput., 2019,
     15, 1652-1671. DOI: 10.1021/acs.jctc.8b01176
   for GFN1-xTB:
   * S. Grimme, C. Bannwarth, P. Shushkov, J. Chem. Theory Comput., 2017,
     13, 1989-2009. DOI: 10.1021/acs.jctc.7b00118
   for GFN0-xTB:
   * P. Pracht, E. Caldeweyher, S. Ehlert, S. Grimme, ChemRxiv, 2019, preprint.
     DOI: 10.26434/chemrxiv.8326202.v1
   for GFN-FF:
   * S. Spicher and S. Grimme, Angew. Chem. Int. Ed., 2020, 59, 15665-15673.
     DOI: 10.1002/anie.202004239
   
   for ALPB and GBSA implicit solvation:
   * S. Ehlert, M. Stahn, S. Spicher, S. Grimme, J. Chem. Theory Comput.,
     2021, 17, 4250-4261. DOI: 10.1021/acs.jctc.1c00471
   
   for ddCOSMO and CPCM-X implicit solvation:
   * M. Stahn, S. Ehlert, S. Grimme, J. Phys. Chem. A,
     2023, XX, XXXX-XXXX. DOI: 10.1021/acs.jpca.3c04382
   
   for DFT-D4:
   * E. Caldeweyher, C. Bannwarth and S. Grimme, J. Chem. Phys., 2017,
     147, 034112. DOI: 10.1063/1.4993215
   * E. Caldeweyher, S. Ehlert, A. Hansen, H. Neugebauer, S. Spicher,
     C. Bannwarth and S. Grimme, J. Chem. Phys., 2019, 150, 154122.
     DOI: 10.1063/1.5090222
   * E. Caldeweyher, J.-M. Mewes, S. Ehlert and S. Grimme, Phys. Chem. Chem. Phys.
     2020, 22, 8499-8512. DOI: 10.1039/D0CP00502A
   
   for sTDA-xTB:
   * S. Grimme and C. Bannwarth, J. Chem. Phys., 2016, 145, 054103.
     DOI: 10.1063/1.4959605
   
   in the mass-spec context:
   * V. Asgeirsson, C. Bauer and S. Grimme, Chem. Sci., 2017, 8, 4879.
     DOI: 10.1039/c7sc00601b
   * J. Koopman and S. Grimme, ACS Omega 2019, 4, 12, 15120-15133.
     DOI: 10.1021/acsomega.9b02011
   
   for metadynamics refer to:
   * S. Grimme, J. Chem. Theory Comput., 2019, 155, 2847-2862
     DOI: 10.1021/acs.jctc.9b00143
   
   for SPH calculations refer to:
   * S. Spicher and S. Grimme, J. Chem. Theory Comput., 2021, 17, 1701-1714
     DOI: 10.1021/acs.jctc.0c01306
   
   for ONIOM refer to:
   * C. Plett, A. Katbashev, S. Ehlert, S. Grimme, M. Bursch,
     Phys. Chem. Chem. Phys., 2023, 25, 17860-17868. DOI: 10.1039/D3CP02178E
   
   for DIPRO refer to:
   * J. Kohn, N. Gildemeister, S. Grimme, D. Fazzi, A. Hansen,
     J. Chem. Phys., 2023, just accepted.
   
   for PTB refer to:
   * S. Grimme, M. Mueller, A. Hansen, J. Chem. Phys., 2023, 158, 124111.
     DOI: 10.1063/5.0137838
   
   with help from (in alphabetical order)
   P. Atkinson, C. Bannwarth, F. Bohle, G. Brandenburg, E. Caldeweyher
   M. Checinski, S. Dohm, S. Ehlert, S. Ehrlich, I. Gerasimov, C. Hölzer
   A. Katbashev, J. Kohn, J. Koopman, C. Lavigne, S. Lehtola, F. März, M. Müller,
   F. Musil, H. Neugebauer, J. Pisarek, C. Plett, P. Pracht, F. Pultar,
   J. Seibert, P. Shushkov, S. Spicher, M. Stahn, M. Steiner, T. Strunk,
   J. Stückrath, T. Rose, and J. Unsleber
   
 * started run on 2025/05/04 at 13:30:21.817     
   ID    Z sym.   atoms
    1   17 Cl     1
    2    1 H      2

           -------------------------------------------------
          |                Calculation Setup                |
           -------------------------------------------------

          program call               : xtb /home/elcabris/Documents/scientific-computing/period-4/chemistry_2/chemistry-II/practica_iii/punto_1/opt/HCl/xtbopt.xyz --hess
          coordinate file            : /home/elcabris/Documents/scientific-computing/period-4/chemistry_2/chemistry-II/practica_iii/punto_1/opt/HCl/xtbopt.xyz
          omp threads                :                     8


           -------------------------------------------------
          |                 G F N 2 - x T B                 |
           -------------------------------------------------

        Reference                      10.1021/acs.jctc.8b01176
      * Hamiltonian:
        H0-scaling (s, p, d)           1.850000    2.230000    2.230000
        zeta-weighting                 0.500000
      * Dispersion:
        s8                             2.700000
        a1                             0.520000
        a2                             5.000000
        s9                             5.000000
      * Repulsion:
        kExp                           1.500000    1.000000
        rExp                           1.000000
      * Coulomb:
        alpha                          2.000000
        third order                    shell-resolved
        anisotropic                    true
        a3                             3.000000
        a5                             4.000000
        cn-shift                       1.200000
        cn-exp                         4.000000
        max-rad                        5.000000


          ...................................................
          :                      SETUP                      :
          :.................................................:
          :  # basis functions                  11          :
          :  # atomic orbitals                  10          :
          :  # shells                            4          :
          :  # electrons                         8          :
          :  max. iterations                   250          :
          :  Hamiltonian                  GFN2-xTB          :
          :  restarted?                      false          :
          :  GBSA solvation                  false          :
          :  PC potential                    false          :
          :  electronic temp.          300.0000000     K    :
          :  accuracy                    1.0000000          :
          :  -> integral cutoff          0.2500000E+02      :
          :  -> integral neglect         0.1000000E-07      :
          :  -> SCF convergence          0.1000000E-05 Eh   :
          :  -> wf. convergence          0.1000000E-03 e    :
          :  Broyden damping             0.4000000          :
          :  net charge                          0          :
          :  unpaired electrons                  0          :
          ...................................................

 iter      E             dE          RMSdq      gap      omega  full diag
   1     -5.0571081 -0.505711E+01  0.379E+00    9.15       0.0  T
   2     -5.0587680 -0.165988E-02  0.239E+00    9.00       1.0  T
   3     -5.0594341 -0.666147E-03  0.873E-01    8.91       1.0  T
   4     -5.0596933 -0.259155E-03  0.432E-01    9.00       1.0  T
   5     -5.0599664 -0.273064E-03  0.569E-02    9.16       1.2  T
   6     -5.0599696 -0.323511E-05  0.179E-02    9.17       4.0  T
   7     -5.0599697 -0.737771E-07  0.312E-03    9.17      22.7  T
   8     -5.0599697 -0.330930E-08  0.135E-04    9.17     522.9  T
   9     -5.0599697 -0.158451E-11  0.131E-05    9.17    5418.2  T

   *** convergence criteria satisfied after 9 iterations ***

         #    Occupation            Energy/Eh            Energy/eV
      -------------------------------------------------------------
         1        2.0000           -1.0638076             -28.9477
         2        2.0000           -0.5324104             -14.4876
         3        2.0000           -0.4409937             -12.0000
         4        2.0000           -0.4409937             -12.0000 (HOMO)
         5                         -0.1040616              -2.8317 (LUMO)
         6                          0.0116115               0.3160
         7                          0.0116115               0.3160
         8                          0.0178628               0.4861
         9                          0.0178628               0.4861
        10                          0.2080497               5.6613
      -------------------------------------------------------------
                  HL-Gap            0.3369321 Eh            9.1684 eV
             Fermi-level           -0.2725276 Eh           -7.4159 eV

 SCC (total)                   0 d,  0 h,  0 min,  0.001 sec
 SCC setup                      ...        0 min,  0.000 sec (  6.301%)
 Dispersion                     ...        0 min,  0.000 sec (  3.774%)
 classical contributions        ...        0 min,  0.000 sec (  1.148%)
 integral evaluation            ...        0 min,  0.000 sec ( 13.994%)
 iterations                     ...        0 min,  0.001 sec ( 60.151%)
 molecular gradient             ...        0 min,  0.000 sec (  8.501%)
 printout                       ...        0 min,  0.000 sec (  5.365%)

         :::::::::::::::::::::::::::::::::::::::::::::::::::::
         ::                     SUMMARY                     ::
         :::::::::::::::::::::::::::::::::::::::::::::::::::::
         :: total energy              -5.052813180523 Eh    ::
         :: gradient norm              0.000553771492 Eh/a0 ::
         :: HOMO-LUMO gap              9.168389085029 eV    ::
         ::.................................................::
         :: SCC energy                -5.059969678330 Eh    ::
         :: -> isotropic ES            0.011801620483 Eh    ::
         :: -> anisotropic ES         -0.003411090130 Eh    ::
         :: -> anisotropic XC         -0.004757345609 Eh    ::
         :: -> dispersion             -0.000100225303 Eh    ::
         :: repulsion energy           0.007156497806 Eh    ::
         :: add. restraining           0.000000000000 Eh    ::
         :: total charge               0.000000000000 e     ::
         :::::::::::::::::::::::::::::::::::::::::::::::::::::

           ------------------------------------------------- 
          |                Numerical Hessian                |
           ------------------------------------------------- 
step length          :   0.00500
SCC accuracy         :   0.30000
Hessian scale factor :   1.00000
frozen atoms in %    :   0.00000    0
RMS gradient         :   0.00055

writing file <hessian>, containing the non-mass-weighted Hessian matrix in atomic units (Eₕ/Bohr²).

 vibrational frequencies (cm⁻¹)
eigval :        0.00     0.00     0.00     0.00     0.00  2504.90
           -------------------------------------------------
          |                Property Printout                |
           -------------------------------------------------

    * Orbital Energies and Occupations

         #    Occupation            Energy/Eh            Energy/eV
      -------------------------------------------------------------
         1        2.0000           -1.0638076             -28.9477
         2        2.0000           -0.5324104             -14.4876
         3        2.0000           -0.4409937             -12.0000
         4        2.0000           -0.4409937             -12.0000 (HOMO)
         5                         -0.1040614              -2.8317 (LUMO)
         6                          0.0116115               0.3160
         7                          0.0116115               0.3160
         8                          0.0178628               0.4861
         9                          0.0178628               0.4861
        10                          0.2080496               5.6613
Molecule has the following symmetry elements: (Cinf) (sigma) 
It seems to be the Cinfv point group
      -------------------------------------------------------------
                  HL-Gap            0.3369323 Eh            9.1684 eV
             Fermi-level           -0.2725276 Eh           -7.4159 eV

     #   Z          covCN         q      C6AA      α(0)
     1  17          0.844    -0.331   109.737    16.026
     2   1          0.844     0.331     0.630     1.244

 Mol. C6AA /au·bohr⁶  :        126.977452
 Mol. C8AA /au·bohr⁸  :       4959.271415
 Mol. α(0) /au        :         17.269320


Wiberg/Mayer (AO) data.
largest (>0.10) Wiberg bond orders for each atom

 ---------------------------------------------------------------------------
     #   Z sym  total        # sym  WBO       # sym  WBO       # sym  WBO
 ---------------------------------------------------------------------------
     1  17      0.890 --     2      0.890
     2   1      0.890 --     1      0.890
 ---------------------------------------------------------------------------

Topologies differ in total number of bonds
Writing topology from bond orders to xtbtopo.mol

molecular dipole:
                 x           y           z       tot (Debye)
 q only:       -0.000      -0.000      -0.799
   full:       -0.000      -0.000      -0.414       1.051
molecular quadrupole (traceless):
                xx          xy          yy          xz          yz          zz
 q only:        3.775      -0.000       3.775      -5.663      -5.663      -7.551
  q+dip:        1.327      -0.000       1.327      -2.931      -2.931      -2.654
   full:        1.068      -0.000       1.068      -2.931      -2.931      -2.136

           -------------------------------------------------
          |               Frequency Printout                |
           -------------------------------------------------
 vibrational frequencies (cm⁻¹)
eigval :        0.00     0.00     0.00     0.00     0.00  2504.90
 reduced masses (amu)
    1:     18.23    2:     18.23    3:     18.23    4:      1.04    5:      1.04    6:      1.04
 IR intensities (km·mol⁻¹)
    1:      0.00    2:      0.00    3:      0.00    4:     29.19    5:     29.19    6:    146.80
 Raman intensities (Ä⁴*amu⁻¹)
    1:      0.00    2:      0.00    3:      0.00    4:      0.00    5:      0.00    6:      0.00
 output can be read by thermo (or use thermo option).
 writing <g98.out> molden fake output.
 recommended (thermochemical) frequency scaling factor: 1.0
           -------------------------------------------------
          |             Thermodynamic Functions             |
           -------------------------------------------------

cin symmetry found (for desy threshold:  0.10E+00) used in thermo

          ...................................................
          :                      SETUP                      :
          :.................................................:
          :  # frequencies                           1      :
          :  # imaginary freq.                       0      :
          :  linear?                              true      :
          :  only rotor calc.                    false      :
          :  symmetry                              cin      :
          :  rotational number                       1      :
          :  scaling factor                  1.0000000      :
          :  rotor cutoff                   50.0000000 cm⁻¹ :
          :  imag. cutoff                  -20.0000000 cm⁻¹ :
          :.................................................:

    mode    ω/cm⁻¹     T·S(HO)/kcal·mol⁻¹    T·S(FR)/kcal·mol⁻¹   T·S(vib)
   ------------------------------------------------------------------------
   ------------------------------------------------------------------------

   temp. (K)  partition function   enthalpy   heat capacity  entropy
                                   cal/mol     cal/K/mol   cal/K/mol   J/K/mol
 298.15  VIB   1.00                    0.040      0.002      0.000
         ROT   19.7                  592.485      1.987      7.908
         INT   19.7                  592.525      1.989      7.908
         TR   0.674E+25             1481.212      4.968     36.711
         TOT                        2073.7376     6.9568    44.6185   186.6836

       T/K    H(0)-H(T)+PV         H(T)/Eh          T*S/Eh         G(T)/Eh
   ------------------------------------------------------------------------
    298.15    0.330471E-02    0.901130E-02    0.211997E-01   -0.121884E-01
   ------------------------------------------------------------------------

         :::::::::::::::::::::::::::::::::::::::::::::::::::::
         ::                  THERMODYNAMIC                  ::
         :::::::::::::::::::::::::::::::::::::::::::::::::::::
         :: total free energy          -5.065001548621 Eh   ::
         ::.................................................::
         :: total energy               -5.052813180523 Eh   ::
         :: zero point energy           0.005706586267 Eh   ::
         :: G(RRHO) w/o ZPVE           -0.017894954364 Eh   ::
         :: G(RRHO) contrib.           -0.012188368097 Eh   ::
         :::::::::::::::::::::::::::::::::::::::::::::::::::::

           -------------------------------------------------
          | TOTAL ENERGY               -5.052813180523 Eh   |
          | TOTAL ENTHALPY             -5.043801882994 Eh   |
          | TOTAL FREE ENERGY          -5.065001548621 Eh   |
          | GRADIENT NORM               0.000553674725 Eh/α |
          | HOMO-LUMO GAP               9.168394143427 eV   |
           -------------------------------------------------

------------------------------------------------------------------------
 * finished run on 2025/05/04 at 13:30:21.826     
------------------------------------------------------------------------
 total:
 * wall-time:     0 d,  0 h,  0 min,  0.009 sec
 *  cpu-time:     0 d,  0 h,  0 min,  0.067 sec
 * ratio c/w:     7.427 speedup
 SCF:
 * wall-time:     0 d,  0 h,  0 min,  0.001 sec
 *  cpu-time:     0 d,  0 h,  0 min,  0.013 sec
 * ratio c/w:    10.074 speedup
 analytical hessian:
 * wall-time:     0 d,  0 h,  0 min,  0.002 sec
 *  cpu-time:     0 d,  0 h,  0 min,  0.017 sec
 * ratio c/w:     7.081 speedup

