6
 energy: -8.226118423836 gnorm: 0.000085293153 xtb: 6.7.1 (f02873e4dc4a3070f355eaf9db37e90a8a0123c4)
C           -0.04950684572431        0.66475139753481       -0.00000000005495
O           -0.03894078978434       -0.74162955858450       -0.00000000017185
H           -1.09536625679764        0.96623205184927        0.00000000006654
H            0.87355083014080       -1.04906666123359        0.00000000023343
H            0.43791503114502        1.07381488512427        0.89173961773957
H            0.43791503102048        1.07381488530974       -0.89173961781273
