2
 energy: -5.052813180523 gnorm: 0.000553662644 xtb: 6.7.1 (f02873e4dc4a3070f355eaf9db37e90a8a0123c4)
Cl           2.50000000000000        2.50000000000000        3.13895441202577
H            2.50000000000000        2.50000000000000        1.86104558797423
