2
 energy: -5.052809877864 gnorm: 0.001832673147 xtb: 6.7.1 (f02873e4dc4a3070f355eaf9db37e90a8a0123c4)
Cl           2.50000000000000        2.50000000000000        3.13998900000000
H            2.50000000000000        2.50000000000000        1.86001100000000
2
 energy: -5.052813180523 gnorm: 0.000553812356 xtb: 6.7.1 (f02873e4dc4a3070f355eaf9db37e90a8a0123c4)
Cl           2.50000000000000        2.50000000000000        3.13895441202577
H            2.50000000000000        2.50000000000000        1.86104558797423
