3
 energy: -5.070222286688 gnorm: 0.018343947599 xtb: 6.7.1 (d3f212ba83287290efafee6580670d02d7b2f49d)
O            4.00000000000000        4.00000000000000        4.29815450000000
H            4.00000000000000        4.76323900000000        3.70184550000000
H            4.00000000000000        3.23676100000000        3.70184550000000
3
 energy: -5.070460421702 gnorm: 0.007990584101 xtb: 6.7.1 (d3f212ba83287290efafee6580670d02d7b2f49d)
O            4.00000000000000        4.00000000000000        4.28967945703102
H            4.00000000000000        4.76559516514318        3.70608302148449
H            4.00000000000000        3.23440483485682        3.70608302148449
3
 energy: -5.070542630102 gnorm: 0.000934371732 xtb: 6.7.1 (d3f212ba83287290efafee6580670d02d7b2f49d)
O            4.00000000000000        4.00000000000000        4.28085087856971
H            4.00000000000000        4.77061564748179        3.71049731071514
H            4.00000000000000        3.22938435251821        3.71049731071514
3
 energy: -5.070544351023 gnorm: 0.000185437632 xtb: 6.7.1 (d3f212ba83287290efafee6580670d02d7b2f49d)
O            4.00000000000000        4.00000000013755        4.27966449384263
H            4.00000000000000        4.77250895364620        3.71109050313242
H            4.00000000000000        3.22749104621624        3.71109050302495
