 Entering Gaussian System
 *********************************************
 Gaussian 98:
 frequency output generated by the xtb code
 *********************************************
                         Standard orientation:
 --------------------------------------------------------------------
  Center     Atomic     Atomic              Coordinates (Angstroms)
  Number     Number      Type              X           Y           Z
 --------------------------------------------------------------------
    1          6             0        3.914255    4.243412    3.999979
    2          8             0        4.088582    5.430878    3.999977
    3          8             0        2.689360    3.697307    3.999985
    4          1             0        2.009979    4.389459    3.999986
    5          6             0        4.987039    3.193392    3.999977
    6          1             0        5.964781    3.664030    3.999973
    7          1             0        4.872843    2.565043    4.879910
    8          1             0        4.872837    2.565040    3.120048
 --------------------------------------------------------------------
     1 basis functions        1 primitive gaussians
     1 alpha electrons        1 beta electrons

 Harmonic frequencies (cm**-1), IR intensities (km*mol⁻¹),
 Raman scattering activities (A**4/amu), Raman depolarization ratios,
 reduced masses (AMU), force constants (mDyne/A) and normal coordinates:
                      1                      2                      3
                        a                      a                      a 
 Frequencies --    28.4177               399.3451               528.4323
 Red. masses --     1.0827                 2.9151                 1.7376
 Frc consts  --     0.0000                 0.0000                 0.0000
 IR Inten    --     0.5520                 3.8663                18.5279
 Raman Activ --     0.0000                 0.0000                 0.0000
 Depolar     --     0.0000                 0.0000                 0.0000
 Atom AN      X      Y      Z        X      Y      Z        X      Y      Z
   1   6    -0.00  -0.00   0.02    -0.16  -0.28   0.00     0.00   0.00   0.64
   2   8    -0.00  -0.00  -0.19     0.17  -0.37   0.00    -0.00  -0.00  -0.22
   3   8     0.00   0.00   0.19    -0.45   0.26   0.00    -0.00  -0.00  -0.06
   4   1     0.00   0.00   0.01     0.01   0.19  -0.00    -0.00  -0.00  -0.55
   5   6     0.00   0.00   0.01     0.33   0.22  -0.00    -0.00  -0.00  -0.04
   6   1     0.00   0.00   0.52    -0.03   0.33  -0.00    -0.00  -0.00  -0.19
   7   1    -0.32  -0.36  -0.30     0.27   0.04   0.00     0.23  -0.19  -0.12
   8   1     0.32   0.36  -0.30     0.27   0.04  -0.00    -0.23   0.19  -0.12
                      4                      5                      6
                        a                      a                      a 
 Frequencies --   564.6730               657.4658               897.5069
 Red. masses --     4.2410                 1.4407                 3.5152
 Frc consts  --     0.0000                 0.0000                 0.0000
 IR Inten    --    48.1106               185.5688                 5.6374
 Raman Activ --     0.0000                 0.0000                 0.0000
 Depolar     --     0.0000                 0.0000                 0.0000
 Atom AN      X      Y      Z        X      Y      Z        X      Y      Z
   1   6     0.25  -0.14  -0.00    -0.00  -0.00  -0.38    -0.08   0.26  -0.00
   2   8    -0.62  -0.02   0.00     0.00   0.00   0.21     0.08   0.38  -0.00
   3   8     0.08   0.42  -0.00     0.00   0.00   0.36    -0.43  -0.11   0.00
   4   1     0.20   0.29  -0.00    -0.00  -0.00  -0.78    -0.27  -0.20   0.00
   5   6     0.27  -0.31  -0.00    -0.00  -0.00  -0.09     0.44  -0.40  -0.00
   6   1     0.11  -0.16  -0.00     0.00   0.00   0.06     0.15  -0.17  -0.00
   7   1     0.03  -0.08  -0.00    -0.12   0.12   0.05     0.14  -0.12  -0.00
   8   1     0.03  -0.08   0.00     0.12  -0.12   0.05     0.14  -0.12   0.00
                      7                      8                      9
                        a                      a                      a 
 Frequencies --   984.1158              1009.0983              1158.3891
 Red. masses --     1.5950                 1.6769                 1.7137
 Frc consts  --     0.0000                 0.0000                 0.0000
 IR Inten    --    42.8203                40.4103               218.3832
 Raman Activ --     0.0000                 0.0000                 0.0000
 Depolar     --     0.0000                 0.0000                 0.0000
 Atom AN      X      Y      Z        X      Y      Z        X      Y      Z
   1   6    -0.19   0.05   0.00    -0.00  -0.00  -0.49    -0.24  -0.06   0.00
   2   8    -0.06   0.09   0.00     0.00   0.00   0.11    -0.06  -0.31   0.00
   3   8     0.35   0.17  -0.00     0.00   0.00   0.07     0.27   0.41  -0.00
   4   1    -0.11  -0.15   0.00     0.00  -0.00   0.01    -0.50  -0.47   0.00
   5   6    -0.23  -0.38   0.00     0.00   0.00   0.42     0.18   0.10  -0.00
   6   1    -0.31   0.44   0.00    -0.00  -0.00  -0.22     0.14  -0.19  -0.00
   7   1     0.35  -0.12   0.03     0.34  -0.36  -0.12    -0.13   0.04  -0.01
   8   1     0.35  -0.12  -0.03    -0.34   0.36  -0.12    -0.13   0.04   0.01
                     10                     11                     12
                        a                      a                      a 
 Frequencies --  1244.8747              1368.0053              1440.2393
 Red. masses --     2.9997                 1.2791                 1.0586
 Frc consts  --     0.0000                 0.0000                 0.0000
 IR Inten    --   179.6440                49.5048                 9.4781
 Raman Activ --     0.0000                 0.0000                 0.0000
 Depolar     --     0.0000                 0.0000                 0.0000
 Atom AN      X      Y      Z        X      Y      Z        X      Y      Z
   1   6    -0.77   0.06   0.00     0.11  -0.01  -0.00     0.00   0.00   0.04
   2   8     0.10   0.04  -0.00    -0.02  -0.04   0.00    -0.00  -0.00  -0.00
   3   8     0.28  -0.06  -0.00    -0.02   0.02   0.00    -0.00  -0.00  -0.01
   4   1     0.34   0.28  -0.00    -0.04  -0.04   0.00    -0.00  -0.00  -0.00
   5   6     0.17  -0.02  -0.00    -0.31   0.35   0.00     0.00   0.00   0.22
   6   1     0.15  -0.23  -0.00     0.18  -0.42   0.00    -0.00  -0.00  -0.73
   7   1     0.02  -0.05  -0.03     0.36  -0.32  -0.21    -0.44  -0.07  -0.08
   8   1     0.02  -0.05   0.03     0.36  -0.32   0.21     0.44   0.07  -0.08
                     13                     14                     15
                        a                      a                      a 
 Frequencies --  1441.2534              1802.9335              3036.5805
 Red. masses --     1.0644                11.0636                 1.0936
 Frc consts  --     0.0000                 0.0000                 0.0000
 IR Inten    --    22.7397               511.2020                 4.1563
 Raman Activ --     0.0000                 0.0000                 0.0000
 Depolar     --     0.0000                 0.0000                 0.0000
 Atom AN      X      Y      Z        X      Y      Z        X      Y      Z
   1   6    -0.02  -0.02   0.00    -0.07  -0.79   0.00     0.00   0.00   0.01
   2   8     0.01   0.05  -0.00     0.08   0.58  -0.00    -0.00   0.00  -0.00
   3   8     0.01   0.00  -0.00     0.03   0.06  -0.00    -0.00  -0.00  -0.00
   4   1     0.00  -0.00  -0.00    -0.07  -0.07   0.00     0.00  -0.00   0.00
   5   6     0.21   0.10  -0.00    -0.03   0.07   0.00     0.00   0.00   0.29
   6   1    -0.14   0.37  -0.00     0.02  -0.05  -0.00     0.00   0.00   0.04
   7   1    -0.30  -0.43  -0.35    -0.02   0.03   0.02     0.08   0.41  -0.53
   8   1    -0.30  -0.43   0.35    -0.02   0.03  -0.02    -0.08  -0.41  -0.53
                     16                     17                     18
                        a                      a                      a 
 Frequencies --  3042.6563              3074.4200              3454.4334
 Red. masses --     1.0412                 1.0824                 1.0638
 Frc consts  --     0.0000                 0.0000                 0.0000
 IR Inten    --     2.2939                 7.9524                29.8711
 Raman Activ --     0.0000                 0.0000                 0.0000
 Depolar     --     0.0000                 0.0000                 0.0000
 Atom AN      X      Y      Z        X      Y      Z        X      Y      Z
   1   6    -0.00   0.01  -0.00     0.01   0.01  -0.00     0.01  -0.00  -0.00
   2   8    -0.00  -0.00   0.00    -0.00  -0.00   0.00     0.00  -0.00   0.00
   3   8     0.00  -0.00  -0.00    -0.00  -0.00   0.00     0.16  -0.17  -0.00
   4   1    -0.01   0.00   0.00     0.00   0.00  -0.00    -0.69   0.68   0.00
   5   6     0.00   0.19  -0.00     0.23   0.14  -0.00     0.00   0.00  -0.00
   6   1     0.14   0.09  -0.00    -0.86  -0.41   0.00     0.00  -0.00   0.00
   7   1    -0.07  -0.38   0.57     0.01  -0.04   0.09    -0.00   0.00  -0.00
   8   1    -0.07  -0.38  -0.57     0.01  -0.04  -0.09    -0.00   0.00   0.00
