[Molden Format]
[Title]
[Atoms] AU
C      1     6  0.73968685796529E+01  0.80188849355457E+01  0.75588646786016E+01
O      2     8  0.77262991661823E+01  0.10262870334852E+02  0.75588596136960E+01
O      3     8  0.50821530402848E+01  0.69868960694473E+01  0.75588745682584E+01
H      4     1  0.37983097652810E+01  0.82948750641731E+01  0.75588767652681E+01
C      5     6  0.94241368816597E+01  0.60346366492478E+01  0.75588610697535E+01
H      6     1  0.11271801110658E+02  0.69240126693356E+01  0.75588530715608E+01
H      7     1  0.92083373892659E+01  0.48472286227185E+01  0.92216925488434E+01
H      8     1  0.92083257867112E+01  0.48472228215606E+01  0.58960352390487E+01
[GTO]
           1 0
 s           4   1.0000000000000000     
   51.049363095579913      -0.16312063210127389     
   8.7911227406887544      -0.19911024581000730     
  0.70640422258929825       0.31882047753655751     
  0.26922813413411617       0.12706504184240380     
 p           4   1.0000000000000000     
   5.8263656140800002       0.73716451545209605     
   1.5106896018720002       0.68216371614850257     
  0.53256483288000001       0.35783053929253711     
  0.21202323690600003        5.3983030275847881E-002

           2 0
 s           4   1.0000000000000000     
   69.137961906196551      -0.20478756370077797     
   11.906129132707308      -0.24997023136827334     
  0.95670827744340703       0.40025880240639616     
  0.36462520496073686       0.15952206667693555     
 p           4   1.0000000000000000     
   8.2124193257781641        1.1321556799186829     
   2.1293576997098116        1.0476840782254817     
  0.75066448202360914       0.54956508217158984     
  0.29885246543283073        8.2908486592766617E-002

           3 0
 s           4   1.0000000000000000     
   69.137961906196551      -0.20478756370077797     
   11.906129132707308      -0.24997023136827334     
  0.95670827744340703       0.40025880240639616     
  0.36462520496073686       0.15952206667693555     
 p           4   1.0000000000000000     
   8.2124193257781641        1.1321556799186829     
   2.1293576997098116        1.0476840782254817     
  0.75066448202360914       0.54956508217158984     
  0.29885246543283073        8.2908486592766617E-002

           4 0
 s           3   1.0000000000000000     
   3.3702276975336001       0.27359110588908298     
  0.61389118221497996       0.26460540653860526     
  0.16614291148415999        8.2465947534082318E-002

           5 0
 s           4   1.0000000000000000     
   51.049363095579913      -0.16312063210127389     
   8.7911227406887544      -0.19911024581000730     
  0.70640422258929825       0.31882047753655751     
  0.26922813413411617       0.12706504184240380     
 p           4   1.0000000000000000     
   5.8263656140800002       0.73716451545209605     
   1.5106896018720002       0.68216371614850257     
  0.53256483288000001       0.35783053929253711     
  0.21202323690600003        5.3983030275847881E-002

           6 0
 s           3   1.0000000000000000     
   3.3702276975336001       0.27359110588908298     
  0.61389118221497996       0.26460540653860526     
  0.16614291148415999        8.2465947534082318E-002

           7 0
 s           3   1.0000000000000000     
   3.3702276975336001       0.27359110588908298     
  0.61389118221497996       0.26460540653860526     
  0.16614291148415999        8.2465947534082318E-002

           8 0
 s           3   1.0000000000000000     
   3.3702276975336001       0.27359110588908298     
  0.61389118221497996       0.26460540653860526     
  0.16614291148415999        8.2465947534082318E-002

[MO]
Sym=     1a
Ene=  -0.74849031251210507     
Spin= Alpha
Occup=     2.00000000
           1 -0.32726028417592290     
           2  0.17221175120728094     
           3   5.2697916515869192E-003
           4  -6.0633263305572283E-007
           5 -0.17329768906660234     
           6   6.2497275739699515E-002
           7  0.10697079721310498     
           8  -4.0983507572358234E-007
           9 -0.65288037769531171     
          10 -0.11005592523301570     
          11  -8.4221594496127775E-002
          12   5.8744643630897631E-007
          13 -0.10634388477618018     
          14  -3.4103504295626398E-002
          15   3.8518882663114561E-002
          16  -2.2062472705132855E-002
          17  -9.4966865716818075E-008
          18  -6.8414215301942818E-004
          19  -2.2501450426730767E-003
          20  -2.2501446539875138E-003
Sym=     2a
Ene=  -0.72186603769483004     
Spin= Alpha
Occup=     2.00000000
           1 -0.25434023204788531     
           2 -0.11609952323336487     
           3 -0.26432483610419338     
           4   8.5259648147671993E-007
           5 -0.59153616176965151     
           6   1.4784584698247526E-002
           7  0.17211184019361003     
           8  -3.8227743234179919E-007
           9  0.37404680992377315     
          10  -4.8418827685870948E-002
          11  -6.1237339296708708E-002
          12   2.4024860199399004E-007
          13   6.2388751485406936E-002
          14  -2.7195472973262483E-002
          15   7.0563824171878927E-003
          16  -3.9724793729833251E-002
          17   4.3458649224858081E-008
          18  -5.7530942313922355E-003
          19  -1.5491312388135599E-003
          20  -1.5491314623271460E-003
Sym=     3a
Ene=  -0.66799937803786102     
Spin= Alpha
Occup=     2.00000000
           1  0.30155361147514292     
           2   5.7670797508515378E-002
           3 -0.25709397564960407     
           4   2.5013928830062179E-007
           5 -0.23815325035008145     
           6   4.5923078845207271E-002
           7  -9.7605324290700818E-002
           8  -1.7320046416015720E-009
           9 -0.16072077582941399     
          10  0.44211256271900845     
          11 -0.13233077444421243     
          12  -1.2926047820557525E-006
          13 -0.23369463403097113     
          14  0.27240893680970718     
          15 -0.10718545487662443     
          16   6.0770884611338810E-002
          17   2.6797824369553499E-007
          18   5.3903591340485564E-002
          19   7.3138290328186015E-002
          20   7.3138288732184573E-002
Sym=     4a
Ene=  -0.62037484231418705     
Spin= Alpha
Occup=     2.00000000
           1   3.9617413234391802E-002
           2 -0.34322739219998283     
           3   3.2927261819005099E-002
           4   1.1567807763915406E-006
           5  -8.0760924698889028E-002
           6 -0.20270291644578706     
           7  -1.7546873335792020E-003
           8   7.0998963762860081E-007
           9 -0.19794318535030675     
          10  0.41033487024619925     
          11  0.13194108836187918     
          12  -1.6221468357636286E-006
          13 -0.16935460893328444     
          14 -0.39862600606946097     
          15  -3.5136711023906357E-002
          16  -4.0531172547366948E-002
          17   1.9631750864432990E-007
          18 -0.16481806503552388     
          19 -0.12984869948688829     
          20 -0.12984870429823916     
Sym=     5a
Ene=  -0.58694431808888381     
Spin= Alpha
Occup=     2.00000000
           1  0.15810775835212235     
           2  -1.4284818915088961E-002
           3  0.10098226122674211     
           4  -1.4024598078056387E-007
           5 -0.51644211635505588     
           6 -0.11815183565959880     
           7 -0.37279716482798780     
           8   1.0061629469997685E-006
           9 -0.31333465365993751     
          10 -0.12107192739170257     
          11  0.56560141425590593     
          12  -5.2740074583365075E-007
          13  0.22746204264684472     
          14   8.9128534994311198E-002
          15   4.9443602369691510E-002
          16   4.1919252637090905E-002
          17  -2.4831858981854411E-007
          18   6.7883313009331481E-002
          19   1.6755886557426405E-002
          20   1.6755890214857249E-002
Sym=     6a
Ene=  -0.58273923226006219     
Spin= Alpha
Occup=     2.00000000
           1   1.5843321481530705E-008
           2  -1.7843711427704152E-006
           3  -8.8374872817392387E-007
           4 -0.52332046868124993     
           5  -1.5481248729665572E-008
           6  -1.3596699496109973E-006
           7  -7.4373609848089760E-007
           8 -0.39518782714314382     
           9  -7.6433290406617786E-009
          10  -1.8402763999401359E-006
          11  -9.7185103172139752E-007
          12 -0.52944180903567806     
          13  -3.4735161875452128E-008
          14  -4.6975045858357685E-008
          15  -5.9627986177340727E-007
          16  -2.6398914578742416E-007
          17 -0.16814185268037557     
          18  -1.8507068924270983E-008
          19  -8.3936945359606802E-002
          20   8.3936888560029663E-002
Sym=     7a
Ene=  -0.56389444675525247     
Spin= Alpha
Occup=     2.00000000
           1  0.16989679207027603     
           2  0.29021911412293289     
           3   1.0109419603922060E-002
           4  -9.5846199248559615E-007
           5 -0.25115158991485725     
           6  0.26218802154484189     
           7 -0.35089244880760739     
           8  -2.5832497208714459E-007
           9  0.15806522595955094     
          10 -0.14144163932152348     
          11 -0.26627352633347867     
          12   1.0198320966305869E-006
          13  -1.9236984827464158E-002
          14 -0.26048016474027108     
          15 -0.13303149331786138     
          16  0.27096286362078270     
          17   1.7801449624248356E-008
          18 -0.11711393472962922     
          19 -0.21080611582433037     
          20 -0.21080614463185565     
Sym=     8a
Ene=  -0.50059408786957071     
Spin= Alpha
Occup=     2.00000000
           1   7.9492038849676733E-002
           2  0.11847529410514514     
           3 -0.32852240010755029     
           4   1.4135105041866089E-007
           5  0.22957877771025245     
           6  0.28564904168408178     
           7  0.43990820165536199     
           8  -1.7390250591472369E-006
           9 -0.19193775209082048     
          10   2.4564274170236020E-002
          11  0.48222418372013720     
          12  -9.0716984930936573E-007
          13  0.20076545077039881     
          14   4.5448218169231048E-003
          15 -0.27892217502391775     
          16  0.20127435326009138     
          17   5.3996595491835309E-007
          18 -0.13922330968782623     
          19  -8.5289294687230274E-002
          20  -8.5289188203084329E-002
Sym=     9a
Ene=  -0.49252060690338739     
Spin= Alpha
Occup=     2.00000000
           1   4.6538056754997597E-009
           2   3.5956360438081553E-008
           3  -2.4065068959362654E-008
           4   6.1093862748198072E-003
           5   2.0635130092310833E-008
           6   1.5425869904194044E-007
           7   1.0772037643867822E-007
           8   3.2850111014199788E-002
           9  -5.1947757617296385E-008
          10  -1.7073118797057508E-006
          11  -7.7688048456142261E-007
          12 -0.49382201707930384     
          13   1.5053607237044242E-008
          14   1.6042191194308126E-009
          15   1.8137076604017087E-006
          16   9.4552333686729105E-007
          17  0.52617986694857743     
          18  -2.8027052318300376E-009
          19  0.36200852499799369     
          20 -0.36200855486505934     
Sym=    10a
Ene=  -0.48919152606080435     
Spin= Alpha
Occup=     2.00000000
           1  -3.2400111514335708E-002
           2  -6.9234230797460244E-002
           3  -4.2414188282762839E-002
           4   3.3058279876771956E-007
           5   4.3291216915136030E-002
           6   3.7050571561296965E-002
           7  0.16051432062532692     
           8  -3.4774622633633841E-007
           9   5.3648793125162755E-002
          10  0.16136128425274851     
          11   6.8720966788814772E-002
          12  -7.2110429477589433E-007
          13  -5.7560249291712086E-002
          14   9.3303001105368398E-003
          15  0.43699447641022438     
          16  0.37290730616742546     
          17  -2.2017259464223000E-006
          18  0.47900787389333782     
          19 -0.22245204963719634     
          20 -0.22245199801272766     
Sym=    11a
Ene=  -0.47813826783800395     
Spin= Alpha
Occup=     2.00000000
           1  -6.2976723540380461E-009
           2   6.3117721939773135E-007
           3   3.4025341072148295E-007
           4  0.18120628318643187     
           5  -6.0965958796884902E-008
           6   2.4172948822135891E-006
           7   1.1399535800179752E-006
           8  0.69181941088043342     
           9  -3.3916903120902688E-008
          10  -2.0861287637033072E-006
          11  -1.0285363804919303E-006
          12 -0.59728269389524435     
          13  -1.0846265536895629E-008
          14  -4.7081173163727201E-009
          15  -7.3627694991120445E-007
          16  -4.0873727432668743E-007
          17 -0.20648338205560873     
          18  -3.4573418281923245E-008
          19 -0.16346513363326431     
          20  0.16346518604817104     
Sym=    12a
Ene=  -0.42738269593733658     
Spin= Alpha
Occup=     2.00000000
           1   8.8924893323711451E-002
           2  0.11825677066960642     
           3 -0.11290448664418339     
           4  -2.0580577332129874E-007
           5   8.8571682918855647E-003
           6 -0.84561678767583448     
           7  0.16745446094860780     
           8   2.6805494979753553E-006
           9  -9.8013713074245834E-002
          10 -0.22525180240802123     
          11 -0.19085881219088563     
          12   1.0890704488941784E-006
          13   6.5161890988079146E-002
          14  0.12149996425437304     
          15 -0.20308968642853206     
          16  0.28546745539594659     
          17   2.0875057286027477E-007
          18  -1.4189825357961493E-002
          19  -8.5748395406030409E-002
          20  -8.5748392252792488E-002
Sym=    13a
Ene=  -0.23585651541880137     
Spin= Alpha
Occup=     0.00000000
           1  -1.6424092789411865E-009
           2  -3.0553805758472341E-006
           3  -1.5285065149680678E-006
           4 -0.87507237530040738     
           5  -1.3641244772144216E-008
           6   2.2368185946800940E-006
           7   1.1104860204548138E-006
           8  0.64300105451645129     
           9   1.0192148464169079E-008
          10   1.3320723082570561E-006
          11   6.5942133331713705E-007
          12  0.38087912499027787     
          13   6.2653806986801712E-009
          14   5.5375919219188508E-010
          15   1.0331519572931827E-007
          16   5.1534693881540609E-008
          17   2.9641693234225792E-002
          18   1.8272473264293619E-009
          19  0.18372122772304772     
          20 -0.18372122977206123     
Sym=    14a
Ene=    5.7537690121450699E-002
Spin= Alpha
Occup=     0.00000000
           1  0.56476584578689948     
           2  -6.9377498367627979E-002
           3 -0.33635554791385619     
           4   8.2823169909696735E-007
           5  -1.1239374309355357E-002
           6   6.0497433566037859E-002
           7   8.9054130816553362E-002
           8  -3.6674742316522012E-007
           9 -0.67970016724167381     
          10   5.2781695899440935E-002
          11 -0.53336977547927988     
          12   7.3447134601990755E-007
          13  0.83655215084887891     
          14 -0.47442690231486806     
          15  0.18366235440997902     
          16 -0.35795252875355937     
          17  -1.7780399323687284E-008
          18  0.28723968174117753     
          19   9.8234906971420739E-003
          20   9.8234890095486114E-003
Sym=    15a
Ene=   0.15412269552310989     
Spin= Alpha
Occup=     0.00000000
           1  0.26276709963336586     
           2  0.22203279314454355     
           3  -1.6935250528893886E-002
           4  -7.4498400038240514E-007
           5 -0.11174373759856020     
           6  -8.6362872212128641E-002
           7  0.19768088156076211     
           8  -4.2062622320804705E-008
           9  0.21027298998356586     
          10 -0.19001419993346227     
          11  0.21416759540738697     
          12   2.9224677870631367E-007
          13 -0.37312112573307932     
          14  -1.0717682557370392     
          15   5.7862234902681775E-002
          16  0.34520547043815780     
          17  -8.0961731979475310E-007
          18  0.23138650775786587     
          19  0.65829547139374878     
          20  0.65829546005202688     
Sym=    16a
Ene=   0.15768223081766447     
Spin= Alpha
Occup=     0.00000000
           1 -0.64549967713355838     
           2 -0.46959217403522380     
           3  0.26097569826789857     
           4   1.1840955656754839E-006
           5   9.1378351219888396E-002
           6  0.13214890143174252     
           7 -0.23858549214072355     
           8  -4.6944723245780568E-008
           9 -0.20413928154457398     
          10  0.21782372689460380     
          11 -0.20258992518365079     
          12  -4.0924886634420899E-007
          13  0.34767802573834755     
          14 -0.16670227859261055     
          15 -0.83325937078014045     
          16  0.41959824888465830     
          17   2.1748998616429505E-006
          18  0.62624419340840709     
          19  0.17300283513412595     
          20  0.17300283686180035     
Sym=    17a
Ene=   0.18686957597079132     
Spin= Alpha
Occup=     0.00000000
           1  0.40771329481133084     
           2 -0.35230885375893117     
           3 -0.16304793120740230     
           4   1.5141465107445847E-006
           5   3.7433945049153571E-003
           6   8.9889522671784239E-002
           7   4.4595053815660667E-002
           8  -3.9186403673459805E-007
           9   2.7373100699047560E-002
          10 -0.68347244417275999     
          11  0.14041549926983790     
          12   2.1398383203171955E-006
          13 -0.62520572212396053     
          14  -5.2692745974603515E-002
          15 -0.48907431160856890     
          16 -0.53728295614923804     
          17   2.6258090867449973E-006
          18  0.72222847538723212     
          19 -0.32869207984220211     
          20 -0.32869210415045574     
Sym=    18a
Ene=   0.20538927530521731     
Spin= Alpha
Occup=     0.00000000
           1   1.0422015942965484E-008
           2  -6.6823725332857736E-007
           3  -3.3469376304134562E-007
           4 -0.18978882114598836     
           5  -1.4848570312264197E-009
           6   2.1366151040518845E-007
           7   1.0830409330784451E-007
           8   6.0861543225527413E-002
           9   9.1844484808297468E-010
          10   1.7513323638491371E-007
          11   9.5725667898013375E-008
          12   5.3835536419380423E-002
          13  -1.0733164113095963E-008
          14  -7.1415703976448480E-009
          15   3.7345936382377903E-006
          16   1.8655118441526654E-006
          17   1.0728009329947372     
          18   9.0684197442525153E-009
          19 -0.83501023041365430     
          20  0.83501023006252295     
Sym=    19a
Ene=   0.27249187697752791     
Spin= Alpha
Occup=     0.00000000
           1 -0.37547309297742093     
           2  0.91069355873656943     
           3  -9.7070972339787343E-002
           4  -3.0057765679710817E-006
           5  0.10837163691524870     
           6 -0.30088630694699836     
           7 -0.13866900114983471     
           8   1.2907763270320526E-006
           9  0.37309264803175646     
          10  0.55272191346995125     
          11  0.27025765305862071     
          12  -2.3962134561550266E-006
          13  0.14525192380740598     
          14 -0.31986839559542540     
          15 -0.24614415441429288     
          16 -0.63085453848293838     
          17   1.9617464166587138E-006
          18  0.54053551113888554     
          19 -0.21365191862823582     
          20 -0.21365191247998630     
Sym=    20a
Ene=   0.64706490822739982     
Spin= Alpha
Occup=     0.00000000
           1 -0.51888674856129557     
           2 -0.20165758848709459     
           3  -1.1601386512564471     
           4   2.7271181562981534E-006
           5  0.79839581174684737     
           6 -0.12201122439334938     
           7 -0.86802465649704985     
           8   1.9355813161178792E-006
           9 -0.10312040716496633     
          10 -0.25356522899158190     
          11  0.13818546072084240     
          12   6.4343466461496468E-007
          13 -0.12053412060769636     
          14 -0.17933919041775109     
          15  0.30344376491061170     
          16   9.7794203574350771E-002
          17  -1.2291499104367893E-006
          18 -0.13357505661892563     
          19   8.5777747060815326E-002
          20   8.5777747006849647E-002
