9
 energy: -11.391867310483 gnorm: 0.000299557095 xtb: 6.7.1 (d3f212ba83287290efafee6580670d02d7b2f49d)
C            5.09318750700343        3.50970478394981        3.99999999994201
C            3.91204715844848        4.46792423388888        4.00000000016954
O            2.72113938484974        3.70848842376472        3.99999999933634
H            1.96433661713009        4.30269046929100        3.99999999976476
H            3.95411712773731        5.11204365400731        4.89093351700930
H            3.95411712857773        5.11204365530943        3.10906648391834
H            6.02582208075506        4.06676666900509        3.99999999884891
H            5.05160249812727        2.87619455609137        4.88157639340082
H            5.05160249737089        2.87619455469239        3.11842360760997
