9
 energy: -11.391424645488 gnorm: 0.021527841182 xtb: 6.7.1 (d3f212ba83287290efafee6580670d02d7b2f49d)
C            5.08354700000000        3.51448100000000        4.00000000000000
C            3.91536600000000        4.47432500000000        4.00000000000000
O            2.72528300000000        3.68719400000000        4.00000000000000
H            1.96874300000000        4.29638800000000        4.00000000000000
H            3.95792300000000        5.12237100000000        4.88693300000000
H            3.95792300000000        5.12237100000000        3.11306700000000
H            6.03125700000000        4.05966300000000        4.00000000000000
H            5.04396500000000        2.87762900000000        4.88588100000000
H            5.04396500000000        2.87762900000000        3.11411900000000
9
 energy: -11.391815275070 gnorm: 0.006968430785 xtb: 6.7.1 (d3f212ba83287290efafee6580670d02d7b2f49d)
C            5.09284168693411        3.51220018875241        3.99999999998502
C            3.91468723066295        4.46793613872978        4.00000000003891
O            2.71924926708193        3.70372749194376        3.99999999989981
H            1.96752772799421        4.30848591397750        4.00000000005423
H            3.94842892235382        5.11192882464568        4.89039844159970
H            3.94842892265813        5.11192882515182        3.10960155855783
H            6.03231240024405        4.06228522433961        3.99999999968397
H            5.05224792092695        2.87677919649916        4.88171873031421
H            5.05224792114385        2.87677919596028        3.11828126986632
9
 energy: -11.391860770331 gnorm: 0.002298774123 xtb: 6.7.1 (d3f212ba83287290efafee6580670d02d7b2f49d)
C            5.09340067604061        3.51041992771273        3.99999999983420
C            3.91370210423609        4.46764969961986        4.00000000017349
O            2.71995928193343        3.70785917063528        3.99999999969719
H            1.96672692459170        4.30597420524792        4.00000000004923
H            3.95165551745797        5.11024658927598        4.89172234266993
H            3.95165551796190        5.11024659023355        3.10827765755866
H            6.02672164695112        4.06638554272232        3.99999999940820
H            5.05207516539258        2.87663463764815        4.88129312340833
H            5.05207516543460        2.87663463690420        3.11870687720076
9
 energy: -11.391866517669 gnorm: 0.001011469355 xtb: 6.7.1 (d3f212ba83287290efafee6580670d02d7b2f49d)
C            5.09342407781418        3.50985117440404        3.99999999992134
C            3.91268201283490        4.46769872816273        4.00000000008084
O            2.72031809523277        3.70854941670571        3.99999999952618
H            1.96518724338914        4.30406536524138        3.99999999998899
H            3.95336444016992        5.11108259965678        4.89124593306157
H            3.95336444078348        5.11108260083507        3.10875406741715
H            6.02574327950180        4.06702565414520        3.99999999922674
H            5.05194420530566        2.87634773092428        4.88139171041414
H            5.05194420496815        2.87634772992481        3.11860829036306
9
 energy: -11.391867310483 gnorm: 0.000299750065 xtb: 6.7.1 (d3f212ba83287290efafee6580670d02d7b2f49d)
C            5.09318750700343        3.50970478394981        3.99999999994201
C            3.91204715844848        4.46792423388888        4.00000000016954
O            2.72113938484974        3.70848842376472        3.99999999933634
H            1.96433661713009        4.30269046929100        3.99999999976476
H            3.95411712773731        5.11204365400731        4.89093351700930
H            3.95411712857773        5.11204365530943        3.10906648391834
H            6.02582208075506        4.06676666900509        3.99999999884891
H            5.05160249812727        2.87619455609137        4.88157639340082
H            5.05160249737089        2.87619455469239        3.11842360760997
