5
 energy: -4.175074573917 gnorm: 0.010074976441 xtb: 6.7.1 (d3f212ba83287290efafee6580670d02d7b2f49d)
C            4.00000000000000        4.00000000000000        4.00000000000000
H            4.62911800000000        4.62911800000000        4.62911800000000
H            3.37088200000000        3.37088200000000        4.62911800000000
H            4.62911800000000        3.37088200000000        3.37088200000000
H            3.37088200000000        4.62911800000000        3.37088200000000
5
 energy: -4.175215533867 gnorm: 0.001471439032 xtb: 6.7.1 (d3f212ba83287290efafee6580670d02d7b2f49d)
C            3.99999999997758        3.99999999997761        3.99999999997593
H            4.62540750043246        4.62540750043246        4.62540750043257
H            3.37459249953931        3.37459249953931        4.62540750051143
H            4.62540750051072        3.37459249953992        3.37459249954003
H            3.37459249953993        4.62540750051071        3.37459249954004
5
 energy: -4.175217655827 gnorm: 0.000794420955 xtb: 6.7.1 (d3f212ba83287290efafee6580670d02d7b2f49d)
C            3.99999999994974        3.99999999994974        3.99999999994932
H            4.62445562214512        4.62445562214512        4.62445562214526
H            3.37554437779363        3.37554437779362        4.62445562231802
H            4.62445562231795        3.37554437779356        3.37554437779370
H            3.37554437779356        4.62445562231795        3.37554437779370
