2
 energy: -9.079328382279 gnorm: 0.000816548903 xtb: 6.7.1 (f02873e4dc4a3070f355eaf9db37e90a8a0123c4)
Cl           2.50000000000000        2.50000000000000        3.50754100000000
Cl           2.50000000000000        2.50000000000000        1.49245900000000
