[Molden Format]
[Title]
[Atoms] AU
C      1     6  0.73968002073078E+01  0.80189104725842E+01  0.75589044940017E+01
O      2     8  0.77262190443684E+01  0.10262897596758E+02  0.75589044954811E+01
O      3     8  0.50820900714322E+01  0.69869094866762E+01  0.75589045026144E+01
H      4     1  0.37982399478840E+01  0.82948817591983E+01  0.75589045009841E+01
C      5     6  0.94240788987869E+01  0.60346728010625E+01  0.75589044985432E+01
H      6     1  0.11271738471015E+02  0.69240584954867E+01  0.75589045021699E+01
H      7     1  0.92082798192743E+01  0.48472607424406E+01  0.92217331519398E+01
H      8     1  0.92082798254840E+01  0.48472607455889E+01  0.58960758421199E+01
[GTO]
           1 0
 s           4   1.0000000000000000     
   51.049363095579913      -0.16312063210127389     
   8.7911227406887544      -0.19911024581000730     
  0.70640422258929825       0.31882047753655751     
  0.26922813413411617       0.12706504184240380     
 p           4   1.0000000000000000     
   5.8263656140800002       0.73716451545209605     
   1.5106896018720002       0.68216371614850257     
  0.53256483288000001       0.35783053929253711     
  0.21202323690600003        5.3983030275847881E-002

           2 0
 s           4   1.0000000000000000     
   69.137961906196551      -0.20478756370077797     
   11.906129132707308      -0.24997023136827334     
  0.95670827744340703       0.40025880240639616     
  0.36462520496073686       0.15952206667693555     
 p           4   1.0000000000000000     
   8.2124193257781641        1.1321556799186829     
   2.1293576997098116        1.0476840782254817     
  0.75066448202360914       0.54956508217158984     
  0.29885246543283073        8.2908486592766617E-002

           3 0
 s           4   1.0000000000000000     
   69.137961906196551      -0.20478756370077797     
   11.906129132707308      -0.24997023136827334     
  0.95670827744340703       0.40025880240639616     
  0.36462520496073686       0.15952206667693555     
 p           4   1.0000000000000000     
   8.2124193257781641        1.1321556799186829     
   2.1293576997098116        1.0476840782254817     
  0.75066448202360914       0.54956508217158984     
  0.29885246543283073        8.2908486592766617E-002

           4 0
 s           3   1.0000000000000000     
   3.3702276975336001       0.27359110588908298     
  0.61389118221497996       0.26460540653860526     
  0.16614291148415999        8.2465947534082318E-002

           5 0
 s           4   1.0000000000000000     
   51.049363095579913      -0.16312063210127389     
   8.7911227406887544      -0.19911024581000730     
  0.70640422258929825       0.31882047753655751     
  0.26922813413411617       0.12706504184240380     
 p           4   1.0000000000000000     
   5.8263656140800002       0.73716451545209605     
   1.5106896018720002       0.68216371614850257     
  0.53256483288000001       0.35783053929253711     
  0.21202323690600003        5.3983030275847881E-002

           6 0
 s           3   1.0000000000000000     
   3.3702276975336001       0.27359110588908298     
  0.61389118221497996       0.26460540653860526     
  0.16614291148415999        8.2465947534082318E-002

           7 0
 s           3   1.0000000000000000     
   3.3702276975336001       0.27359110588908298     
  0.61389118221497996       0.26460540653860526     
  0.16614291148415999        8.2465947534082318E-002

           8 0
 s           3   1.0000000000000000     
   3.3702276975336001       0.27359110588908298     
  0.61389118221497996       0.26460540653860526     
  0.16614291148415999        8.2465947534082318E-002

[MO]
Sym=     1a
Ene=  -0.74849046371832839     
Spin= Alpha
Occup=     2.00000000
           1 -0.32725925349756957     
           2  0.17220758163294894     
           3   5.2622827837099512E-003
           4  -6.9520945163505209E-010
           5 -0.17331380014518397     
           6   6.2498593123995437E-002
           7  0.10697555833171006     
           8   4.7096022705614556E-010
           9 -0.65287758066730439     
          10 -0.11004694336532253     
          11  -8.4222792147687242E-002
          12   9.0715554196545288E-010
          13 -0.10634629695950257     
          14  -3.4102483630174575E-002
          15   3.8517936717595222E-002
          16  -2.2062485512326341E-002
          17  -2.8509671788087418E-011
          18  -6.8415072548251436E-004
          19  -2.2499040329617532E-003
          20  -2.2499039884640941E-003
Sym=     2a
Ene=  -0.72186797450300333     
Spin= Alpha
Occup=     2.00000000
           1 -0.25432899409265741     
           2 -0.11609727235331499     
           3 -0.26432197490476161     
           4   9.8279194932157053E-010
           5 -0.59153995304693341     
           6   1.4783495298698325E-002
           7  0.17210832308704468     
           8   1.5270114540926255E-009
           9  0.37406022818122320     
          10  -4.8419511855638510E-002
          11  -6.1235224849440627E-002
          12  -2.9636751704334986E-010
          13   6.2392065445410226E-002
          14  -2.7193297069523829E-002
          15   7.0558061684243261E-003
          16  -3.9722772848424549E-002
          17   1.6938792265461360E-010
          18  -5.7525174635831141E-003
          19  -1.5490197554466920E-003
          20  -1.5490198287588098E-003
Sym=     3a
Ene=  -0.66799940141859193     
Spin= Alpha
Occup=     2.00000000
           1  0.30155918268778265     
           2   5.7659309527105032E-002
           3 -0.25708784407041024     
           4   1.3986464317202664E-009
           5 -0.23815803566924273     
           6   4.5919146005505763E-002
           7  -9.7613416079526741E-002
           8   6.7605870324025396E-010
           9 -0.16071706489102416     
          10  0.44212696339180285     
          11 -0.13232351600767348     
          12   4.7699822615396747E-010
          13 -0.23369731401767629     
          14  0.27239860754164502     
          15 -0.10718588528321532     
          16   6.0769891663783229E-002
          17   1.5092298559843091E-010
          18   5.3900277706438376E-002
          19   7.3134689837269881E-002
          20   7.3134689349088122E-002
Sym=     4a
Ene=  -0.62037466387636830     
Spin= Alpha
Occup=     2.00000000
           1   3.9610517480494857E-002
           2 -0.34323207532446559     
           3   3.2932985855635831E-002
           4   1.4643961716747677E-009
           5  -8.0763417940887997E-002
           6 -0.20271631032503548     
           7  -1.7548381113823941E-003
           8   5.6493372731162020E-010
           9 -0.19794042161622033     
          10  0.41032238092974699     
          11  0.13196079286264975     
          12   7.2656729660368116E-010
          13 -0.16934168223330387     
          14 -0.39862833358189215     
          15  -3.5130185338649172E-002
          16  -4.0535533384274798E-002
          17   4.3373257866347163E-010
          18 -0.16481661378942938     
          19 -0.12984769346776207     
          20 -0.12984769354241205     
Sym=     5a
Ene=  -0.58694696642534505     
Spin= Alpha
Occup=     2.00000000
           1  0.15810992656280864     
           2  -1.4269972109068111E-002
           3  0.10098710018587143     
           4  -3.9334639334630931E-009
           5 -0.51644390450964650     
           6 -0.11814168311466396     
           7 -0.37281414165433208     
           8  -3.5824512890217323E-009
           9 -0.31332540082975485     
          10 -0.12109019468362214     
          11  0.56558761713798700     
          12  -2.7584139844690535E-009
          13  0.22746447563463229     
          14   8.9127389490417458E-002
          15   4.9440322842537049E-002
          16   4.1924924458658898E-002
          17  -1.4374433867753071E-009
          18   6.7881673436612916E-002
          19   1.6753485493115044E-002
          20   1.6753487053897322E-002
Sym=     6a
Ene=  -0.58273947119918013     
Spin= Alpha
Occup=     2.00000000
           1   1.1619970531069386E-009
           2   5.8751556105810610E-010
           3  -1.1299813866012632E-009
           4 -0.52331345636413618     
           5  -2.8170391906972126E-010
           6   4.4540860375688491E-010
           7  -1.3094893686985557E-009
           8 -0.39520036045809070     
           9   3.0504609490374105E-009
          10  -9.2903875674031332E-011
          11  -8.7630572613314013E-009
          12 -0.52944448871937899     
          13  -2.8982795449667225E-009
          14  -2.9054841715920021E-009
          15  -1.0786198771661899E-009
          16   8.1927200324467543E-010
          17 -0.16813589126369977     
          18  -1.6723580346523019E-009
          19  -8.3933430628189032E-002
          20   8.3933427878555178E-002
Sym=     7a
Ene=  -0.56389486880965667     
Spin= Alpha
Occup=     2.00000000
           1  0.16988862379540948     
           2  0.29020862408007347     
           3   1.0120261983551287E-002
           4   3.7180965944098108E-009
           5 -0.25113926409592008     
           6  0.26219622203849297     
           7 -0.35089663094515333     
           8   2.8868037714359120E-009
           9  0.15807456557620381     
          10 -0.14143180266175806     
          11 -0.26629894042750019     
          12   4.8162463483580372E-009
          13  -1.9251367591790115E-002
          14 -0.26049065323705284     
          15 -0.13302834433951582     
          16  0.27094872574948448     
          17   5.7331699661956225E-010
          18 -0.11711814830702887     
          19 -0.21080356633594977     
          20 -0.21080356658967039     
Sym=     8a
Ene=  -0.50059557726714188     
Spin= Alpha
Occup=     2.00000000
           1   7.9497235680680733E-002
           2  0.11847660794687492     
           3 -0.32852012631015076     
           4  -1.6786727709469417E-010
           5  0.22956722723885811     
           6  0.28567411211144622     
           7  0.43990389318793505     
           8   4.6170444420120982E-009
           9 -0.19193016255142595     
          10   2.4575033230460393E-002
          11  0.48222969898253643     
          12  -2.8423690931888138E-009
          13  0.20076049955043207     
          14   4.5380469400953388E-003
          15 -0.27889793827019321     
          16  0.20129563115243765     
          17  -7.6555142094841616E-009
          18 -0.13919844578549823     
          19  -8.5304752813443477E-002
          20  -8.5304742558221847E-002
Sym=     9a
Ene=  -0.49251987940298431     
Spin= Alpha
Occup=     2.00000000
           1   2.3830394615624918E-009
           2   3.8288254094381404E-009
           3  -1.2658784347370270E-009
           4   6.1299479186803082E-003
           5  -5.1911752397334109E-011
           6   1.7739399397411950E-009
           7  -2.8912485419203643E-009
           8   3.2907968995129343E-002
           9  -5.0501544987363751E-009
          10  -7.1743893806590626E-009
          11   1.4909602638750102E-009
          12 -0.49386533958243845     
          13   4.4811195232399236E-009
          14  -4.4196825847428788E-010
          15  -2.0157053336806525E-008
          16  -1.1852155568595905E-008
          17  0.52616490668938043     
          18  -1.9140625902677674E-008
          19  0.36199600644964741     
          20 -0.36199599201485699     
Sym=    10a
Ene=  -0.48919056284319345     
Spin= Alpha
Occup=     2.00000000
           1  -3.2402485417336507E-002
           2  -6.9238695806135689E-002
           3  -4.2393987067412472E-002
           4   2.5902221700566285E-009
           5   4.3273406600748444E-002
           6   3.7038245342347356E-002
           7  0.16048482226432814     
           8   1.0045596667835575E-008
           9   5.3660920021514395E-002
          10  0.16135847886997071     
          11   6.8696165121479094E-002
          12  -2.8320125295130202E-008
          13  -5.7570425439462759E-002
          14   9.3274692392692586E-003
          15  0.43700803995780046     
          16  0.37289930591740444     
          17   1.7414405690453226E-008
          18  0.47901580769481650     
          19 -0.22244818166664612     
          20 -0.22244820361756776     
Sym=    11a
Ene=  -0.47814136175563254     
Spin= Alpha
Occup=     2.00000000
           1   8.9482966356869915E-011
           2  -3.9785327299311558E-010
           3   4.2123185028061338E-009
           4  0.18119265962826947     
           5  -2.3298663452723729E-009
           6  -1.7636277607413046E-009
           7  -7.3641796942107672E-009
           8  0.69181908409364201     
           9  -4.2282444979144607E-010
          10  -3.2712137577804065E-009
          11  -5.1547111464209750E-009
          12 -0.59724472578347876     
          13  -8.6139064170995471E-010
          14  -3.7386741895184151E-010
          15  -2.8499046090406032E-009
          16  -7.4782518482752615E-009
          17 -0.20652639860028890     
          18  -5.6069808774823370E-009
          19 -0.16349329647363775     
          20  0.16349330464744810     
Sym=    12a
Ene=  -0.42738633149216870     
Spin= Alpha
Occup=     2.00000000
           1   8.8930023935340621E-002
           2  0.11826775556785953     
           3 -0.11291220750232281     
           4   9.9137351497653878E-010
           5   8.8582679792028537E-003
           6 -0.84560586139798632     
           7  0.16745568045982781     
           8   1.8413780237882314E-009
           9  -9.8015670060649429E-002
          10 -0.22525216826647929     
          11 -0.19085385001301783     
          12   2.5943528949507990E-010
          13   6.5165172205999752E-002
          14  0.12149870795476445     
          15 -0.20309765019851223     
          16  0.28547670293109600     
          17  -1.8141138588623623E-010
          18  -1.4192019622987169E-002
          19  -8.5753331411558220E-002
          20  -8.5753331087483245E-002
Sym=    13a
Ene=  -0.23585621130395978     
Spin= Alpha
Occup=     0.00000000
           1   2.9425912188069400E-009
           2  -1.3477496547348609E-009
           3  -1.3868561738492860E-009
           4 -0.87507919248907506     
           5   1.9543803064361482E-010
           6   3.4285796987500820E-010
           7   3.2454770140317524E-010
           8  0.64299078237245877     
           9  -4.0047336200526481E-011
          10   2.4433661968094352E-011
          11   2.0807155617020530E-011
          12  0.38087878778241530     
          13   2.7331057874582473E-011
          14  -9.8656651484018015E-010
          15   8.6626278874057221E-010
          16  -5.2190012004784324E-010
          17   2.9642822226147388E-002
          18   1.0454105323496687E-009
          19  0.18372241461964295     
          20 -0.18372241501688727     
Sym=    14a
Ene=    5.7537799415209263E-002
Spin= Alpha
Occup=     0.00000000
           1  0.56476000373277935     
           2  -6.9378857026346552E-002
           3 -0.33635218249303134     
           4   2.7949395745352247E-009
           5  -1.1239573653693262E-002
           6   6.0498025634760547E-002
           7   8.9052701893374622E-002
           8  -1.1840798073998310E-009
           9 -0.67970268199871564     
          10   5.2789826744817463E-002
          11 -0.53337239541713766     
          12   1.1987607165801347E-009
          13  0.83655907631823445     
          14 -0.47442241678250224     
          15  0.18366023924490713     
          16 -0.35794712624888525     
          17   5.2038149768386790E-010
          18  0.28723935665437927     
          19   9.8235262346223918E-003
          20   9.8235276532094868E-003
Sym=    15a
Ene=   0.15412375528643590     
Spin= Alpha
Occup=     0.00000000
           1  0.26282630558947007     
           2  0.22205936336932688     
           3  -1.6956761044440577E-002
           4   9.9375337881409718E-010
           5 -0.11175098767959180     
           6  -8.6370422366219432E-002
           7  0.19769905130280982     
           8  -3.2165281393382897E-010
           9  0.21028486907149871     
          10 -0.19004479339162875     
          11  0.21418120218388234     
          12  -7.1797249380275512E-010
          13 -0.37315533901595205     
          14  -1.0717580912228966     
          15   5.7913440323970611E-002
          16  0.34516425162193598     
          17  -5.8876079556982380E-010
          18  0.23135420690666272     
          19  0.65827706130353392     
          20  0.65827705945300552     
Sym=    16a
Ene=   0.15768348880039551     
Spin= Alpha
Occup=     0.00000000
           1 -0.64549285944563795     
           2 -0.46956819027571706     
           3  0.26097488368560939     
           4  -2.0414930518994175E-009
           5   9.1371387285054478E-002
           6  0.13213939757854926     
           7 -0.23857175355481094     
           8   6.1401780664329185E-010
           9 -0.20411747022102486     
          10  0.21782168126438592     
          11 -0.20256953503487724     
          12   7.1735218421795669E-010
          13  0.34765373646256553     
          14 -0.16677970044337709     
          15 -0.83325333759305742     
          16  0.41962481878848068     
          17   1.9352439730151305E-009
          18  0.62625266934856805     
          19  0.17305431790432602     
          20  0.17305432339640267     
Sym=    17a
Ene=   0.18686975653694357     
Spin= Alpha
Occup=     0.00000000
           1  0.40770456902814189     
           2 -0.35232275617617959     
           3 -0.16304718165896767     
           4   2.4606862776649448E-010
           5   3.7458873614301938E-003
           6   8.9893597694588837E-002
           7   4.4589946060959618E-002
           8  -1.3500286795622682E-010
           9   2.7361432125881616E-002
          10 -0.68346786225981382     
          11  0.14040212957134723     
          12   1.4594123685673966E-009
          13 -0.62519132835249736     
          14  -5.2675568930255622E-002
          15 -0.48908154407614468     
          16 -0.53728587119476579     
          17   1.0242774868234826E-008
          18  0.72223110696872750     
          19 -0.32870140819380983     
          20 -0.32870138971282620     
Sym=    18a
Ene=   0.20539070622389138     
Spin= Alpha
Occup=     0.00000000
           1   3.7763126414345382E-010
           2  -3.6992952674548875E-010
           3   1.3839755577596805E-009
           4 -0.18978906809005286     
           5  -1.0014183673816082E-009
           6   5.7300073336012638E-010
           7   1.2057831425779672E-009
           8   6.0861142726261863E-002
           9  -1.3985653157141352E-009
          10   2.8409600259381391E-009
          11  -2.1361532445048031E-009
          12   5.3835390306480567E-002
          13   3.8601290707102079E-009
          14   2.3556790918902630E-009
          15   7.8471331605062883E-009
          16   8.4574100771195714E-009
          17   1.0728008933227298     
          18  -1.3379863545088400E-008
          19 -0.83501024197472529     
          20  0.83501025244728588     
Sym=    19a
Ene=   0.27249264669727330     
Spin= Alpha
Occup=     0.00000000
           1 -0.37546785874611355     
           2  0.91069636002805276     
           3  -9.7070854508864768E-002
           4  -3.0873077308154791E-009
           5  0.10837216169716526     
           6 -0.30088471521459353     
           7 -0.13866989364142251     
           8   9.4065789419853268E-010
           9  0.37309383980269917     
          10  0.55271511701285825     
          11  0.27026171269758498     
          12  -1.6870436981083386E-009
          13  0.14524752911139593     
          14 -0.31987006688705616     
          15 -0.24613794461490981     
          16 -0.63085956507646890     
          17   6.9322223946117714E-009
          18  0.54053540667379552     
          19 -0.21365283296668214     
          20 -0.21365282184052958     
Sym=    20a
Ene=   0.64706482342470317     
Spin= Alpha
Occup=     0.00000000
           1 -0.51888588358892274     
           2 -0.20165284846485612     
           3  -1.1601418687169656     
           4   3.7979016220211870E-010
           5  0.79839451760940239     
           6 -0.12200608227503842     
           7 -0.86802251714401979     
           8  -6.9106369229256600E-010
           9 -0.10312144805651013     
          10 -0.25356664795315154     
          11  0.13818361909149091     
          12   8.1474270795081440E-010
          13 -0.12053400247949249     
          14 -0.17933942840567491     
          15  0.30344423740823029     
          16   9.7796370547223663E-002
          17   4.3951354195719646E-010
          18 -0.13357568091432262     
          19   8.5778157409392694E-002
          20   8.5778156974282399E-002
