8
 energy: -14.458507373735 gnorm: 0.042093545220 xtb: 6.7.1 (d3f212ba83287290efafee6580670d02d7b2f49d)
C            3.90972850000000        4.23869450000000        4.00000000000000
O            4.07611250000000        5.44421850000000        4.00000000000000
O            2.67327950000000        3.66909850000000        4.00000000000000
H            2.04208250000000        4.41771650000000        4.00000000000000
C            4.98350450000000        3.19138650000000        4.00000000000000
H            5.95791750000000        3.67599950000000        4.00000000000000
H            4.87838950000000        2.55578150000000        4.88174700000000
H            4.87838950000000        2.55578150000000        3.11825300000000
8
 energy: -14.459705297281 gnorm: 0.011732983739 xtb: 6.7.1 (d3f212ba83287290efafee6580670d02d7b2f49d)
C            3.91007788720643        4.23528474704470        3.99999999911217
O            4.07465893839646        5.42474453419584        4.00000000011257
O            2.67709062126799        3.68432334682695        4.00000000041060
H            2.03167279122153        4.41294260772703        4.00000000020537
C            4.98781105142891        3.19460790447960        4.00000000039143
H            5.96483543587781        3.66905602513270        4.00000000015381
H            4.87662863701065        2.56385891734856        4.87975969726860
H            4.87662863759022        2.56385891724463        3.12024030234544
8
 energy: -14.459886831286 gnorm: 0.005798528067 xtb: 6.7.1 (d3f212ba83287290efafee6580670d02d7b2f49d)
C            3.91230583965478        4.23818837193309        4.00000000036852
O            4.07871511932611        5.42498892894932        4.00000000027621
O            2.68362630800710        3.69301984451714        4.00000000107278
H            2.02157681324365        4.40294250517435        3.99999999839798
C            4.98782001468841        3.19378769179950        4.00000000077224
H            5.96428004455928        3.66649521859172        3.99999999925049
H            4.87553993075463        2.56462721910957        4.87944484643740
H            4.87553992976603        2.56462721992532        3.12055515342438
8
 energy: -14.459936650781 gnorm: 0.001797405329 xtb: 6.7.1 (d3f212ba83287290efafee6580670d02d7b2f49d)
C            3.91403510625021        4.24153127362582        3.99999999951524
O            4.08462953054768        5.42890354059163        3.99999999974984
O            2.68826699667477        3.69716824579860        4.00000000149039
H            2.01295663768090        4.39352068531497        3.99999999920957
C            4.98744677825656        3.19320032613157        4.00000000036245
H            5.96447729730271        3.66460428609449        4.00000000007988
H            4.87379582650183        2.56487432063686        4.87972219238259
H            4.87379582678534        2.56487432180607        3.12027780721003
8
 energy: -14.459941785181 gnorm: 0.001099047722 xtb: 6.7.1 (d3f212ba83287290efafee6580670d02d7b2f49d)
C            3.91455083617833        4.24370323306040        4.00000000126905
O            4.08910409199260        5.43152561216795        3.99999999916980
O            2.68993266368913        3.69782881817089        4.00000000201820
H            2.00884684919761        4.38835513819425        3.99999999808023
C            4.98700691666338        3.19328409733756        4.00000000020769
H            5.96485312220674        3.66380798734832        4.00000000000061
H            4.87255476029352        2.56508605603401        4.88001588148314
H            4.87255475977869        2.56508605768661        3.11998411777128
8
 energy: -14.459942512737 gnorm: 0.000144727020 xtb: 6.7.1 (d3f212ba83287290efafee6580670d02d7b2f49d)
C            3.91421810332092        4.24342467837494        3.99999999762925
O            4.08853904473602        5.43089152605070        3.99999999841214
O            2.68932624956588        3.69731327500143        4.00000000218691
H            2.00994202196730        4.38946239411509        4.00000000132416
C            4.98700778700391        3.19341132158744        4.00000000003249
H            5.96474712613650        3.66405396278123        4.00000000195169
H            4.87281183199172        2.56505992021158        4.87993102904901
H            4.87281183527774        2.56505992187759        3.12006896941434
